8x8x14 (001) conventional layers of fcc lattice

1793  atoms
   3  atom types

     0.00000000     28.92000000 xlo xhi
     0.00000000     28.92000000 ylo yhi
     0.00000000     38.49750000 zlo zhi

Atoms

   1  2      0.00000000      0.00000000      0.00000000
   2  2      3.61500000      0.00000000      0.00000000
   3  2      7.23000000      0.00000000      0.00000000
   4  2     10.84500000      0.00000000      0.00000000
   5  2     14.46000000      0.00000000      0.00000000
   6  2     18.07500000      0.00000000      0.00000000
   7  2     21.69000000      0.00000000      0.00000000
   8  2     25.30500000      0.00000000      0.00000000
   9  2      0.00000000      3.61500000      0.00000000
  10  2      3.61500000      3.61500000      0.00000000
  11  2      7.23000000      3.61500000      0.00000000
  12  2     10.84500000      3.61500000      0.00000000
  13  2     14.46000000      3.61500000      0.00000000
  14  2     18.07500000      3.61500000      0.00000000
  15  2     21.69000000      3.61500000      0.00000000
  16  2     25.30500000      3.61500000      0.00000000
  17  2      0.00000000      7.23000000      0.00000000
  18  2      3.61500000      7.23000000      0.00000000
  19  2      7.23000000      7.23000000      0.00000000
  20  2     10.84500000      7.23000000      0.00000000
  21  2     14.46000000      7.23000000      0.00000000
  22  2     18.07500000      7.23000000      0.00000000
  23  2     21.69000000      7.23000000      0.00000000
  24  2     25.30500000      7.23000000      0.00000000
  25  2      0.00000000     10.84500000      0.00000000
  26  2      3.61500000     10.84500000      0.00000000
  27  2      7.23000000     10.84500000      0.00000000
  28  2     10.84500000     10.84500000      0.00000000
  29  2     14.46000000     10.84500000      0.00000000
  30  2     18.07500000     10.84500000      0.00000000
  31  2     21.69000000     10.84500000      0.00000000
  32  2     25.30500000     10.84500000      0.00000000
  33  2      0.00000000     14.46000000      0.00000000
  34  2      3.61500000     14.46000000      0.00000000
  35  2      7.23000000     14.46000000      0.00000000
  36  2     10.84500000     14.46000000      0.00000000
  37  2     14.46000000     14.46000000      0.00000000
  38  2     18.07500000     14.46000000      0.00000000
  39  2     21.69000000     14.46000000      0.00000000
  40  2     25.30500000     14.46000000      0.00000000
  41  2      0.00000000     18.07500000      0.00000000
  42  2      3.61500000     18.07500000      0.00000000
  43  2      7.23000000     18.07500000      0.00000000
  44  2     10.84500000     18.07500000      0.00000000
  45  2     14.46000000     18.07500000      0.00000000
  46  2     18.07500000     18.07500000      0.00000000
  47  2     21.69000000     18.07500000      0.00000000
  48  2     25.30500000     18.07500000      0.00000000
  49  2      0.00000000     21.69000000      0.00000000
  50  2      3.61500000     21.69000000      0.00000000
  51  2      7.23000000     21.69000000      0.00000000
  52  2     10.84500000     21.69000000      0.00000000
  53  2     14.46000000     21.69000000      0.00000000
  54  2     18.07500000     21.69000000      0.00000000
  55  2     21.69000000     21.69000000      0.00000000
  56  2     25.30500000     21.69000000      0.00000000
  57  2      0.00000000     25.30500000      0.00000000
  58  2      3.61500000     25.30500000      0.00000000
  59  2      7.23000000     25.30500000      0.00000000
  60  2     10.84500000     25.30500000      0.00000000
  61  2     14.46000000     25.30500000      0.00000000
  62  2     18.07500000     25.30500000      0.00000000
  63  2     21.69000000     25.30500000      0.00000000
  64  2     25.30500000     25.30500000      0.00000000
  65  2      1.80750000      1.80750000      0.00000000
  66  2      5.42250000      1.80750000      0.00000000
  67  2      9.03750000      1.80750000      0.00000000
  68  2     12.65250000      1.80750000      0.00000000
  69  2     16.26750000      1.80750000      0.00000000
  70  2     19.88250000      1.80750000      0.00000000
  71  2     23.49750000      1.80750000      0.00000000
  72  2     27.11250000      1.80750000      0.00000000
  73  2      1.80750000      5.42250000      0.00000000
  74  2      5.42250000      5.42250000      0.00000000
  75  2      9.03750000      5.42250000      0.00000000
  76  2     12.65250000      5.42250000      0.00000000
  77  2     16.26750000      5.42250000      0.00000000
  78  2     19.88250000      5.42250000      0.00000000
  79  2     23.49750000      5.42250000      0.00000000
  80  2     27.11250000      5.42250000      0.00000000
  81  2      1.80750000      9.03750000      0.00000000
  82  2      5.42250000      9.03750000      0.00000000
  83  2      9.03750000      9.03750000      0.00000000
  84  2     12.65250000      9.03750000      0.00000000
  85  2     16.26750000      9.03750000      0.00000000
  86  2     19.88250000      9.03750000      0.00000000
  87  2     23.49750000      9.03750000      0.00000000
  88  2     27.11250000      9.03750000      0.00000000
  89  2      1.80750000     12.65250000      0.00000000
  90  2      5.42250000     12.65250000      0.00000000
  91  2      9.03750000     12.65250000      0.00000000
  92  2     12.65250000     12.65250000      0.00000000
  93  2     16.26750000     12.65250000      0.00000000
  94  2     19.88250000     12.65250000      0.00000000
  95  2     23.49750000     12.65250000      0.00000000
  96  2     27.11250000     12.65250000      0.00000000
  97  2      1.80750000     16.26750000      0.00000000
  98  2      5.42250000     16.26750000      0.00000000
  99  2      9.03750000     16.26750000      0.00000000
 100  2     12.65250000     16.26750000      0.00000000
 101  2     16.26750000     16.26750000      0.00000000
 102  2     19.88250000     16.26750000      0.00000000
 103  2     23.49750000     16.26750000      0.00000000
 104  2     27.11250000     16.26750000      0.00000000
 105  2      1.80750000     19.88250000      0.00000000
 106  2      5.42250000     19.88250000      0.00000000
 107  2      9.03750000     19.88250000      0.00000000
 108  2     12.65250000     19.88250000      0.00000000
 109  2     16.26750000     19.88250000      0.00000000
 110  2     19.88250000     19.88250000      0.00000000
 111  2     23.49750000     19.88250000      0.00000000
 112  2     27.11250000     19.88250000      0.00000000
 113  2      1.80750000     23.49750000      0.00000000
 114  2      5.42250000     23.49750000      0.00000000
 115  2      9.03750000     23.49750000      0.00000000
 116  2     12.65250000     23.49750000      0.00000000
 117  2     16.26750000     23.49750000      0.00000000
 118  2     19.88250000     23.49750000      0.00000000
 119  2     23.49750000     23.49750000      0.00000000
 120  2     27.11250000     23.49750000      0.00000000
 121  2      1.80750000     27.11250000      0.00000000
 122  2      5.42250000     27.11250000      0.00000000
 123  2      9.03750000     27.11250000      0.00000000
 124  2     12.65250000     27.11250000      0.00000000
 125  2     16.26750000     27.11250000      0.00000000
 126  2     19.88250000     27.11250000      0.00000000
 127  2     23.49750000     27.11250000      0.00000000
 128  2     27.11250000     27.11250000      0.00000000
 129  2      0.00000000      1.80750000      1.80750000
 130  2      3.61500000      1.80750000      1.80750000
 131  2      7.23000000      1.80750000      1.80750000
 132  2     10.84500000      1.80750000      1.80750000
 133  2     14.46000000      1.80750000      1.80750000
 134  2     18.07500000      1.80750000      1.80750000
 135  2     21.69000000      1.80750000      1.80750000
 136  2     25.30500000      1.80750000      1.80750000
 137  2      0.00000000      5.42250000      1.80750000
 138  2      3.61500000      5.42250000      1.80750000
 139  2      7.23000000      5.42250000      1.80750000
 140  2     10.84500000      5.42250000      1.80750000
 141  2     14.46000000      5.42250000      1.80750000
 142  2     18.07500000      5.42250000      1.80750000
 143  2     21.69000000      5.42250000      1.80750000
 144  2     25.30500000      5.42250000      1.80750000
 145  2      0.00000000      9.03750000      1.80750000
 146  2      3.61500000      9.03750000      1.80750000
 147  2      7.23000000      9.03750000      1.80750000
 148  2     10.84500000      9.03750000      1.80750000
 149  2     14.46000000      9.03750000      1.80750000
 150  2     18.07500000      9.03750000      1.80750000
 151  2     21.69000000      9.03750000      1.80750000
 152  2     25.30500000      9.03750000      1.80750000
 153  2      0.00000000     12.65250000      1.80750000
 154  2      3.61500000     12.65250000      1.80750000
 155  2      7.23000000     12.65250000      1.80750000
 156  2     10.84500000     12.65250000      1.80750000
 157  2     14.46000000     12.65250000      1.80750000
 158  2     18.07500000     12.65250000      1.80750000
 159  2     21.69000000     12.65250000      1.80750000
 160  2     25.30500000     12.65250000      1.80750000
 161  2      0.00000000     16.26750000      1.80750000
 162  2      3.61500000     16.26750000      1.80750000
 163  2      7.23000000     16.26750000      1.80750000
 164  2     10.84500000     16.26750000      1.80750000
 165  2     14.46000000     16.26750000      1.80750000
 166  2     18.07500000     16.26750000      1.80750000
 167  2     21.69000000     16.26750000      1.80750000
 168  2     25.30500000     16.26750000      1.80750000
 169  2      0.00000000     19.88250000      1.80750000
 170  2      3.61500000     19.88250000      1.80750000
 171  2      7.23000000     19.88250000      1.80750000
 172  2     10.84500000     19.88250000      1.80750000
 173  2     14.46000000     19.88250000      1.80750000
 174  2     18.07500000     19.88250000      1.80750000
 175  2     21.69000000     19.88250000      1.80750000
 176  2     25.30500000     19.88250000      1.80750000
 177  2      0.00000000     23.49750000      1.80750000
 178  2      3.61500000     23.49750000      1.80750000
 179  2      7.23000000     23.49750000      1.80750000
 180  2     10.84500000     23.49750000      1.80750000
 181  2     14.46000000     23.49750000      1.80750000
 182  2     18.07500000     23.49750000      1.80750000
 183  2     21.69000000     23.49750000      1.80750000
 184  2     25.30500000     23.49750000      1.80750000
 185  2      0.00000000     27.11250000      1.80750000
 186  2      3.61500000     27.11250000      1.80750000
 187  2      7.23000000     27.11250000      1.80750000
 188  2     10.84500000     27.11250000      1.80750000
 189  2     14.46000000     27.11250000      1.80750000
 190  2     18.07500000     27.11250000      1.80750000
 191  2     21.69000000     27.11250000      1.80750000
 192  2     25.30500000     27.11250000      1.80750000
 193  2      1.80750000      0.00000000      1.80750000
 194  2      5.42250000      0.00000000      1.80750000
 195  2      9.03750000      0.00000000      1.80750000
 196  2     12.65250000      0.00000000      1.80750000
 197  2     16.26750000      0.00000000      1.80750000
 198  2     19.88250000      0.00000000      1.80750000
 199  2     23.49750000      0.00000000      1.80750000
 200  2     27.11250000      0.00000000      1.80750000
 201  2      1.80750000      3.61500000      1.80750000
 202  2      5.42250000      3.61500000      1.80750000
 203  2      9.03750000      3.61500000      1.80750000
 204  2     12.65250000      3.61500000      1.80750000
 205  2     16.26750000      3.61500000      1.80750000
 206  2     19.88250000      3.61500000      1.80750000
 207  2     23.49750000      3.61500000      1.80750000
 208  2     27.11250000      3.61500000      1.80750000
 209  2      1.80750000      7.23000000      1.80750000
 210  2      5.42250000      7.23000000      1.80750000
 211  2      9.03750000      7.23000000      1.80750000
 212  2     12.65250000      7.23000000      1.80750000
 213  2     16.26750000      7.23000000      1.80750000
 214  2     19.88250000      7.23000000      1.80750000
 215  2     23.49750000      7.23000000      1.80750000
 216  2     27.11250000      7.23000000      1.80750000
 217  2      1.80750000     10.84500000      1.80750000
 218  2      5.42250000     10.84500000      1.80750000
 219  2      9.03750000     10.84500000      1.80750000
 220  2     12.65250000     10.84500000      1.80750000
 221  2     16.26750000     10.84500000      1.80750000
 222  2     19.88250000     10.84500000      1.80750000
 223  2     23.49750000     10.84500000      1.80750000
 224  2     27.11250000     10.84500000      1.80750000
 225  2      1.80750000     14.46000000      1.80750000
 226  2      5.42250000     14.46000000      1.80750000
 227  2      9.03750000     14.46000000      1.80750000
 228  2     12.65250000     14.46000000      1.80750000
 229  2     16.26750000     14.46000000      1.80750000
 230  2     19.88250000     14.46000000      1.80750000
 231  2     23.49750000     14.46000000      1.80750000
 232  2     27.11250000     14.46000000      1.80750000
 233  2      1.80750000     18.07500000      1.80750000
 234  2      5.42250000     18.07500000      1.80750000
 235  2      9.03750000     18.07500000      1.80750000
 236  2     12.65250000     18.07500000      1.80750000
 237  2     16.26750000     18.07500000      1.80750000
 238  2     19.88250000     18.07500000      1.80750000
 239  2     23.49750000     18.07500000      1.80750000
 240  2     27.11250000     18.07500000      1.80750000
 241  2      1.80750000     21.69000000      1.80750000
 242  2      5.42250000     21.69000000      1.80750000
 243  2      9.03750000     21.69000000      1.80750000
 244  2     12.65250000     21.69000000      1.80750000
 245  2     16.26750000     21.69000000      1.80750000
 246  2     19.88250000     21.69000000      1.80750000
 247  2     23.49750000     21.69000000      1.80750000
 248  2     27.11250000     21.69000000      1.80750000
 249  2      1.80750000     25.30500000      1.80750000
 250  2      5.42250000     25.30500000      1.80750000
 251  2      9.03750000     25.30500000      1.80750000
 252  2     12.65250000     25.30500000      1.80750000
 253  2     16.26750000     25.30500000      1.80750000
 254  2     19.88250000     25.30500000      1.80750000
 255  2     23.49750000     25.30500000      1.80750000
 256  2     27.11250000     25.30500000      1.80750000
 257  1      0.00000000      0.00000000      3.61500000
 258  1      3.61500000      0.00000000      3.61500000
 259  1      7.23000000      0.00000000      3.61500000
 260  1     10.84500000      0.00000000      3.61500000
 261  1     14.46000000      0.00000000      3.61500000
 262  1     18.07500000      0.00000000      3.61500000
 263  1     21.69000000      0.00000000      3.61500000
 264  1     25.30500000      0.00000000      3.61500000
 265  1      0.00000000      3.61500000      3.61500000
 266  1      3.61500000      3.61500000      3.61500000
 267  1      7.23000000      3.61500000      3.61500000
 268  1     10.84500000      3.61500000      3.61500000
 269  1     14.46000000      3.61500000      3.61500000
 270  1     18.07500000      3.61500000      3.61500000
 271  1     21.69000000      3.61500000      3.61500000
 272  1     25.30500000      3.61500000      3.61500000
 273  1      0.00000000      7.23000000      3.61500000
 274  1      3.61500000      7.23000000      3.61500000
 275  1      7.23000000      7.23000000      3.61500000
 276  1     10.84500000      7.23000000      3.61500000
 277  1     14.46000000      7.23000000      3.61500000
 278  1     18.07500000      7.23000000      3.61500000
 279  1     21.69000000      7.23000000      3.61500000
 280  1     25.30500000      7.23000000      3.61500000
 281  1      0.00000000     10.84500000      3.61500000
 282  1      3.61500000     10.84500000      3.61500000
 283  1      7.23000000     10.84500000      3.61500000
 284  1     10.84500000     10.84500000      3.61500000
 285  1     14.46000000     10.84500000      3.61500000
 286  1     18.07500000     10.84500000      3.61500000
 287  1     21.69000000     10.84500000      3.61500000
 288  1     25.30500000     10.84500000      3.61500000
 289  1      0.00000000     14.46000000      3.61500000
 290  1      3.61500000     14.46000000      3.61500000
 291  1      7.23000000     14.46000000      3.61500000
 292  1     10.84500000     14.46000000      3.61500000
 293  1     14.46000000     14.46000000      3.61500000
 294  1     18.07500000     14.46000000      3.61500000
 295  1     21.69000000     14.46000000      3.61500000
 296  1     25.30500000     14.46000000      3.61500000
 297  1      0.00000000     18.07500000      3.61500000
 298  1      3.61500000     18.07500000      3.61500000
 299  1      7.23000000     18.07500000      3.61500000
 300  1     10.84500000     18.07500000      3.61500000
 301  1     14.46000000     18.07500000      3.61500000
 302  1     18.07500000     18.07500000      3.61500000
 303  1     21.69000000     18.07500000      3.61500000
 304  1     25.30500000     18.07500000      3.61500000
 305  1      0.00000000     21.69000000      3.61500000
 306  1      3.61500000     21.69000000      3.61500000
 307  1      7.23000000     21.69000000      3.61500000
 308  1     10.84500000     21.69000000      3.61500000
 309  1     14.46000000     21.69000000      3.61500000
 310  1     18.07500000     21.69000000      3.61500000
 311  1     21.69000000     21.69000000      3.61500000
 312  1     25.30500000     21.69000000      3.61500000
 313  1      0.00000000     25.30500000      3.61500000
 314  1      3.61500000     25.30500000      3.61500000
 315  1      7.23000000     25.30500000      3.61500000
 316  1     10.84500000     25.30500000      3.61500000
 317  1     14.46000000     25.30500000      3.61500000
 318  1     18.07500000     25.30500000      3.61500000
 319  1     21.69000000     25.30500000      3.61500000
 320  1     25.30500000     25.30500000      3.61500000
 321  1      1.80750000      1.80750000      3.61500000
 322  1      5.42250000      1.80750000      3.61500000
 323  1      9.03750000      1.80750000      3.61500000
 324  1     12.65250000      1.80750000      3.61500000
 325  1     16.26750000      1.80750000      3.61500000
 326  1     19.88250000      1.80750000      3.61500000
 327  1     23.49750000      1.80750000      3.61500000
 328  1     27.11250000      1.80750000      3.61500000
 329  1      1.80750000      5.42250000      3.61500000
 330  1      5.42250000      5.42250000      3.61500000
 331  1      9.03750000      5.42250000      3.61500000
 332  1     12.65250000      5.42250000      3.61500000
 333  1     16.26750000      5.42250000      3.61500000
 334  1     19.88250000      5.42250000      3.61500000
 335  1     23.49750000      5.42250000      3.61500000
 336  1     27.11250000      5.42250000      3.61500000
 337  1      1.80750000      9.03750000      3.61500000
 338  1      5.42250000      9.03750000      3.61500000
 339  1      9.03750000      9.03750000      3.61500000
 340  1     12.65250000      9.03750000      3.61500000
 341  1     16.26750000      9.03750000      3.61500000
 342  1     19.88250000      9.03750000      3.61500000
 343  1     23.49750000      9.03750000      3.61500000
 344  1     27.11250000      9.03750000      3.61500000
 345  1      1.80750000     12.65250000      3.61500000
 346  1      5.42250000     12.65250000      3.61500000
 347  1      9.03750000     12.65250000      3.61500000
 348  1     12.65250000     12.65250000      3.61500000
 349  1     16.26750000     12.65250000      3.61500000
 350  1     19.88250000     12.65250000      3.61500000
 351  1     23.49750000     12.65250000      3.61500000
 352  1     27.11250000     12.65250000      3.61500000
 353  1      1.80750000     16.26750000      3.61500000
 354  1      5.42250000     16.26750000      3.61500000
 355  1      9.03750000     16.26750000      3.61500000
 356  1     12.65250000     16.26750000      3.61500000
 357  1     16.26750000     16.26750000      3.61500000
 358  1     19.88250000     16.26750000      3.61500000
 359  1     23.49750000     16.26750000      3.61500000
 360  1     27.11250000     16.26750000      3.61500000
 361  1      1.80750000     19.88250000      3.61500000
 362  1      5.42250000     19.88250000      3.61500000
 363  1      9.03750000     19.88250000      3.61500000
 364  1     12.65250000     19.88250000      3.61500000
 365  1     16.26750000     19.88250000      3.61500000
 366  1     19.88250000     19.88250000      3.61500000
 367  1     23.49750000     19.88250000      3.61500000
 368  1     27.11250000     19.88250000      3.61500000
 369  1      1.80750000     23.49750000      3.61500000
 370  1      5.42250000     23.49750000      3.61500000
 371  1      9.03750000     23.49750000      3.61500000
 372  1     12.65250000     23.49750000      3.61500000
 373  1     16.26750000     23.49750000      3.61500000
 374  1     19.88250000     23.49750000      3.61500000
 375  1     23.49750000     23.49750000      3.61500000
 376  1     27.11250000     23.49750000      3.61500000
 377  1      1.80750000     27.11250000      3.61500000
 378  1      5.42250000     27.11250000      3.61500000
 379  1      9.03750000     27.11250000      3.61500000
 380  1     12.65250000     27.11250000      3.61500000
 381  1     16.26750000     27.11250000      3.61500000
 382  1     19.88250000     27.11250000      3.61500000
 383  1     23.49750000     27.11250000      3.61500000
 384  1     27.11250000     27.11250000      3.61500000
 385  1      0.00000000      1.80750000      5.42250000
 386  1      3.61500000      1.80750000      5.42250000
 387  1      7.23000000      1.80750000      5.42250000
 388  1     10.84500000      1.80750000      5.42250000
 389  1     14.46000000      1.80750000      5.42250000
 390  1     18.07500000      1.80750000      5.42250000
 391  1     21.69000000      1.80750000      5.42250000
 392  1     25.30500000      1.80750000      5.42250000
 393  1      0.00000000      5.42250000      5.42250000
 394  1      3.61500000      5.42250000      5.42250000
 395  1      7.23000000      5.42250000      5.42250000
 396  1     10.84500000      5.42250000      5.42250000
 397  1     14.46000000      5.42250000      5.42250000
 398  1     18.07500000      5.42250000      5.42250000
 399  1     21.69000000      5.42250000      5.42250000
 400  1     25.30500000      5.42250000      5.42250000
 401  1      0.00000000      9.03750000      5.42250000
 402  1      3.61500000      9.03750000      5.42250000
 403  1      7.23000000      9.03750000      5.42250000
 404  1     10.84500000      9.03750000      5.42250000
 405  1     14.46000000      9.03750000      5.42250000
 406  1     18.07500000      9.03750000      5.42250000
 407  1     21.69000000      9.03750000      5.42250000
 408  1     25.30500000      9.03750000      5.42250000
 409  1      0.00000000     12.65250000      5.42250000
 410  1      3.61500000     12.65250000      5.42250000
 411  1      7.23000000     12.65250000      5.42250000
 412  1     10.84500000     12.65250000      5.42250000
 413  1     14.46000000     12.65250000      5.42250000
 414  1     18.07500000     12.65250000      5.42250000
 415  1     21.69000000     12.65250000      5.42250000
 416  1     25.30500000     12.65250000      5.42250000
 417  1      0.00000000     16.26750000      5.42250000
 418  1      3.61500000     16.26750000      5.42250000
 419  1      7.23000000     16.26750000      5.42250000
 420  1     10.84500000     16.26750000      5.42250000
 421  1     14.46000000     16.26750000      5.42250000
 422  1     18.07500000     16.26750000      5.42250000
 423  1     21.69000000     16.26750000      5.42250000
 424  1     25.30500000     16.26750000      5.42250000
 425  1      0.00000000     19.88250000      5.42250000
 426  1      3.61500000     19.88250000      5.42250000
 427  1      7.23000000     19.88250000      5.42250000
 428  1     10.84500000     19.88250000      5.42250000
 429  1     14.46000000     19.88250000      5.42250000
 430  1     18.07500000     19.88250000      5.42250000
 431  1     21.69000000     19.88250000      5.42250000
 432  1     25.30500000     19.88250000      5.42250000
 433  1      0.00000000     23.49750000      5.42250000
 434  1      3.61500000     23.49750000      5.42250000
 435  1      7.23000000     23.49750000      5.42250000
 436  1     10.84500000     23.49750000      5.42250000
 437  1     14.46000000     23.49750000      5.42250000
 438  1     18.07500000     23.49750000      5.42250000
 439  1     21.69000000     23.49750000      5.42250000
 440  1     25.30500000     23.49750000      5.42250000
 441  1      0.00000000     27.11250000      5.42250000
 442  1      3.61500000     27.11250000      5.42250000
 443  1      7.23000000     27.11250000      5.42250000
 444  1     10.84500000     27.11250000      5.42250000
 445  1     14.46000000     27.11250000      5.42250000
 446  1     18.07500000     27.11250000      5.42250000
 447  1     21.69000000     27.11250000      5.42250000
 448  1     25.30500000     27.11250000      5.42250000
 449  1      1.80750000      0.00000000      5.42250000
 450  1      5.42250000      0.00000000      5.42250000
 451  1      9.03750000      0.00000000      5.42250000
 452  1     12.65250000      0.00000000      5.42250000
 453  1     16.26750000      0.00000000      5.42250000
 454  1     19.88250000      0.00000000      5.42250000
 455  1     23.49750000      0.00000000      5.42250000
 456  1     27.11250000      0.00000000      5.42250000
 457  1      1.80750000      3.61500000      5.42250000
 458  1      5.42250000      3.61500000      5.42250000
 459  1      9.03750000      3.61500000      5.42250000
 460  1     12.65250000      3.61500000      5.42250000
 461  1     16.26750000      3.61500000      5.42250000
 462  1     19.88250000      3.61500000      5.42250000
 463  1     23.49750000      3.61500000      5.42250000
 464  1     27.11250000      3.61500000      5.42250000
 465  1      1.80750000      7.23000000      5.42250000
 466  1      5.42250000      7.23000000      5.42250000
 467  1      9.03750000      7.23000000      5.42250000
 468  1     12.65250000      7.23000000      5.42250000
 469  1     16.26750000      7.23000000      5.42250000
 470  1     19.88250000      7.23000000      5.42250000
 471  1     23.49750000      7.23000000      5.42250000
 472  1     27.11250000      7.23000000      5.42250000
 473  1      1.80750000     10.84500000      5.42250000
 474  1      5.42250000     10.84500000      5.42250000
 475  1      9.03750000     10.84500000      5.42250000
 476  1     12.65250000     10.84500000      5.42250000
 477  1     16.26750000     10.84500000      5.42250000
 478  1     19.88250000     10.84500000      5.42250000
 479  1     23.49750000     10.84500000      5.42250000
 480  1     27.11250000     10.84500000      5.42250000
 481  1      1.80750000     14.46000000      5.42250000
 482  1      5.42250000     14.46000000      5.42250000
 483  1      9.03750000     14.46000000      5.42250000
 484  1     12.65250000     14.46000000      5.42250000
 485  1     16.26750000     14.46000000      5.42250000
 486  1     19.88250000     14.46000000      5.42250000
 487  1     23.49750000     14.46000000      5.42250000
 488  1     27.11250000     14.46000000      5.42250000
 489  1      1.80750000     18.07500000      5.42250000
 490  1      5.42250000     18.07500000      5.42250000
 491  1      9.03750000     18.07500000      5.42250000
 492  1     12.65250000     18.07500000      5.42250000
 493  1     16.26750000     18.07500000      5.42250000
 494  1     19.88250000     18.07500000      5.42250000
 495  1     23.49750000     18.07500000      5.42250000
 496  1     27.11250000     18.07500000      5.42250000
 497  1      1.80750000     21.69000000      5.42250000
 498  1      5.42250000     21.69000000      5.42250000
 499  1      9.03750000     21.69000000      5.42250000
 500  1     12.65250000     21.69000000      5.42250000
 501  1     16.26750000     21.69000000      5.42250000
 502  1     19.88250000     21.69000000      5.42250000
 503  1     23.49750000     21.69000000      5.42250000
 504  1     27.11250000     21.69000000      5.42250000
 505  1      1.80750000     25.30500000      5.42250000
 506  1      5.42250000     25.30500000      5.42250000
 507  1      9.03750000     25.30500000      5.42250000
 508  1     12.65250000     25.30500000      5.42250000
 509  1     16.26750000     25.30500000      5.42250000
 510  1     19.88250000     25.30500000      5.42250000
 511  1     23.49750000     25.30500000      5.42250000
 512  1     27.11250000     25.30500000      5.42250000
 513  1      0.00000000      0.00000000      7.23000000
 514  1      3.61500000      0.00000000      7.23000000
 515  1      7.23000000      0.00000000      7.23000000
 516  1     10.84500000      0.00000000      7.23000000
 517  1     14.46000000      0.00000000      7.23000000
 518  1     18.07500000      0.00000000      7.23000000
 519  1     21.69000000      0.00000000      7.23000000
 520  1     25.30500000      0.00000000      7.23000000
 521  1      0.00000000      3.61500000      7.23000000
 522  1      3.61500000      3.61500000      7.23000000
 523  1      7.23000000      3.61500000      7.23000000
 524  1     10.84500000      3.61500000      7.23000000
 525  1     14.46000000      3.61500000      7.23000000
 526  1     18.07500000      3.61500000      7.23000000
 527  1     21.69000000      3.61500000      7.23000000
 528  1     25.30500000      3.61500000      7.23000000
 529  1      0.00000000      7.23000000      7.23000000
 530  1      3.61500000      7.23000000      7.23000000
 531  1      7.23000000      7.23000000      7.23000000
 532  1     10.84500000      7.23000000      7.23000000