LAMMPS (22 Aug 2018)
Running on 7 partitions of processors
Step MaxReplicaForce MaxAtomForce GradV0 GradV1 GradVc EBF EBR RDT RD1 PE1 RD2 PE2 ... RDN PEN
0    3.2963313    2.1859686 8.0648321e-05    1.2947382     3.301411   0.80443895   0.63940093    2.5715209            0   -6212.0891   0.16666667   -6211.8455   0.33333333   -6211.4247          0.5   -6211.2846   0.66666667    -6211.525   0.83333333   -6211.8313            1    -6211.924 
100  0.025638726 0.0090606936 7.0589887e-06 0.0064108983  0.021695828   0.50548147   0.50542081     2.807415            0   -6212.0891   0.16653494   -6211.9882   0.33353574   -6211.7186   0.49993877   -6211.5836   0.66673073    -6211.719   0.83331597   -6211.9881            1    -6212.089 
200 0.0037167866 0.00071338591 1.7191207e-06 0.0011198787  0.003555134   0.50505251   0.50504643    2.8253578            0   -6212.0891    0.1666697   -6211.9906   0.33331722   -6211.7209   0.50001684    -6211.584   0.66666944   -6211.7209   0.83332838   -6211.9906            1   -6212.0891 
300 0.0014950411 0.00093496487 4.1278749e-07 0.00023694817 0.00064202988   0.50500807   0.50500646    2.8325484            0   -6212.0891   0.16666955   -6211.9916   0.33333863   -6211.7215   0.50002256   -6211.5841   0.66665986   -6211.7215    0.8333307   -6211.9916            1   -6212.0891 
400 0.00019159492 7.5717567e-05 2.2087239e-07 0.00010144218 0.00015814057   0.50500664   0.50500529    2.8338189            0   -6212.0891   0.16666694   -6211.9918   0.33333344   -6211.7217   0.50000181   -6211.5841   0.66666646   -6211.7217   0.83333309   -6211.9918            1   -6212.0891 
450 9.3406254e-05 7.256542e-06 1.7485702e-07 7.7498582e-05 9.5211458e-05   0.50500658   0.50500526    2.8339949            0   -6212.0891   0.16666682   -6211.9918   0.33333338   -6211.7217   0.50000014   -6211.5841   0.66666662   -6211.7217   0.83333319   -6211.9918            1   -6212.0891 
Climbing replica = 4
Step MaxReplicaForce MaxAtomForce GradV0 GradV1 GradVc EBF EBR RDT RD1 PE1 RD2 PE2 ... RDN PEN
450 9.5211458e-05 1.3490339e-05 1.7485702e-07 7.7498582e-05 9.5211458e-05   0.50500658   0.50500526    2.8339949            0   -6212.0891   0.16666682   -6211.9918   0.33333338   -6211.7217   0.50000014   -6211.5841   0.66666662   -6211.7217   0.83333319   -6211.9918            1   -6212.0891 
451 9.5211458e-05 1.3490339e-05 1.7485702e-07 7.7498582e-05 9.5211458e-05   0.50500658   0.50500526    2.8339949            0   -6212.0891   0.16666682   -6211.9918   0.33333338   -6211.7217   0.50000014   -6211.5841   0.66666662   -6211.7217   0.83333319   -6211.9918            1   -6212.0891 
