LAMMPS (22 Aug 2018)
Processor partition = 3
Reading data file ...
  orthogonal box = (0 0 0) to (28.92 28.92 38.4975)
  1 by 1 by 1 MPI processor grid
  reading atoms ...
  1793 atoms
1 atoms in group artn
256 atoms in group bottom
WARNING: Using 'neigh_modify every 1 delay 0 check yes' setting during minimization (../min.cpp:168)
Neighbor list info ...
  update every 1 steps, delay 0 steps, check yes
  max neighbors/atom: 2000, page size: 100000
  master list distance cutoff = 6.95
  ghost atom cutoff = 6.95
  binsize = 3.475, bins = 9 9 12
  1 neighbor lists, perpetual/occasional/extra = 1 0 0
  (1) pair eam, perpetual
      attributes: half, newton on
      pair build: half/bin/atomonly/newton
      stencil: half/bin/3d/newton
      bin: standard
Setting up cg style minimization ...
  Unit style    : metal
  Current step  : 0
Per MPI rank memory allocation (min/avg/max) = 4.674 | 4.674 | 4.674 Mbytes
Step Temp E_pair E_mol TotEng Press 
       0            0   -6211.6471            0   -6211.6471   -7186.1159 
      47            0   -6212.0891            0   -6212.0891   -4799.4404 
Loop time of 0.311241 on 1 procs for 47 steps with 1793 atoms

99.9% CPU use with 1 MPI tasks x no OpenMP threads

Minimization stats:
  Stopping criterion = force tolerance
  Energy initial, next-to-last, final = 
        -6211.64706999     -6212.08908242     -6212.08908242
  Force two-norm initial, final = 2.28098 8.57966e-05
  Force max component initial, final = 0.942453 6.71197e-06
  Final line search alpha, max atom move = 1 6.71197e-06
  Iterations, force evaluations = 47 93

MPI task timing breakdown:
Section |  min time  |  avg time  |  max time  |%varavg| %total
---------------------------------------------------------------
Pair    | 0.30512    | 0.30512    | 0.30512    |   0.0 | 98.03
Neigh   | 0          | 0          | 0          |   0.0 |  0.00
Comm    | 0.0017889  | 0.0017889  | 0.0017889  |   0.0 |  0.57
Output  | 0          | 0          | 0          |   0.0 |  0.00
Modify  | 0          | 0          | 0          |   0.0 |  0.00
Other   |            | 0.004328   |            |       |  1.39

Nlocal:    1793 ave 1793 max 1793 min
Histogram: 1 0 0 0 0 0 0 0 0 0
Nghost:    2969 ave 2969 max 2969 min
Histogram: 1 0 0 0 0 0 0 0 0 0
Neighs:    107065 ave 107065 max 107065 min
Histogram: 1 0 0 0 0 0 0 0 0 0

Total # of neighbors = 107065
Ave neighs/atom = 59.7128
Neighbor list builds = 0
Dangerous builds = 0
WARNING: Using 'neigh_modify every 1 delay 0 check yes' setting during minimization (../min.cpp:168)
Setting up fire style minimization ...
  Unit style    : metal
  Current step  : 0
Per MPI rank memory allocation (min/avg/max) = 3.549 | 3.549 | 3.549 Mbytes
Step Temp E_pair E_mol TotEng Press 
       0            0   -6211.2846            0   -6211.2846   -4732.3417 
     450 6.7125086e-08   -6211.5841            0   -6211.5841   -4841.1992 
Loop time of 1.7832 on 1 procs for 450 steps with 1793 atoms

99.8% CPU use with 1 MPI tasks x no OpenMP threads

Minimization stats:
  Stopping criterion = force tolerance
  Energy initial, next-to-last, final = 
        -6211.28464347     -6211.58407584     -6211.58407584
  Force two-norm initial, final = 3.29633 9.34063e-05
  Force max component initial, final = 2.18597 6.93001e-06
  Final line search alpha, max atom move = 0 0
  Iterations, force evaluations = 450 450

MPI task timing breakdown:
Section |  min time  |  avg time  |  max time  |%varavg| %total
---------------------------------------------------------------
Pair    | 1.6544     | 1.6544     | 1.6544     |   0.0 | 92.77
Neigh   | 0          | 0          | 0          |   0.0 |  0.00
Comm    | 0.0087271  | 0.0087271  | 0.0087271  |   0.0 |  0.49
Output  | 0          | 0          | 0          |   0.0 |  0.00
Modify  | 0.089712   | 0.089712   | 0.089712   |   0.0 |  5.03
Other   |            | 0.03041    |            |       |  1.71

Nlocal:    1793 ave 1793 max 1793 min
Histogram: 1 0 0 0 0 0 0 0 0 0
Nghost:    2969 ave 2969 max 2969 min
Histogram: 1 0 0 0 0 0 0 0 0 0
Neighs:    107054 ave 107054 max 107054 min
Histogram: 1 0 0 0 0 0 0 0 0 0

Total # of neighbors = 107054
Ave neighs/atom = 59.7066
Neighbor list builds = 0
Dangerous builds = 0
WARNING: Using 'neigh_modify every 1 delay 0 check yes' setting during minimization (../min.cpp:168)
Setting up fire style minimization ...
  Unit style    : metal
  Current step  : 450
Per MPI rank memory allocation (min/avg/max) = 3.549 | 3.549 | 3.549 Mbytes
Step Temp E_pair E_mol TotEng Press 
     450            0   -6211.5841            0   -6211.5841   -4841.1992 
     451 2.9709241e-10   -6211.5841            0   -6211.5841   -4841.1992 
Loop time of 0.00810194 on 1 procs for 1 steps with 1793 atoms

100.0% CPU use with 1 MPI tasks x no OpenMP threads

Minimization stats:
  Stopping criterion = force tolerance
  Energy initial, next-to-last, final = 
        -6211.58407584     -6211.58407584     -6211.58407584
  Force two-norm initial, final = 9.52115e-05 9.52115e-05
  Force max component initial, final = 1.34903e-05 1.34903e-05
  Final line search alpha, max atom move = 0 0
  Iterations, force evaluations = 1 1

MPI task timing breakdown:
Section |  min time  |  avg time  |  max time  |%varavg| %total
---------------------------------------------------------------
Pair    | 0.007535   | 0.007535   | 0.007535   |   0.0 | 93.00
Neigh   | 0          | 0          | 0          |   0.0 |  0.00
Comm    | 3.7909e-05 | 3.7909e-05 | 3.7909e-05 |   0.0 |  0.47
Output  | 0          | 0          | 0          |   0.0 |  0.00
Modify  | 0.00035715 | 0.00035715 | 0.00035715 |   0.0 |  4.41
Other   |            | 0.0001719  |            |       |  2.12

Nlocal:    1793 ave 1793 max 1793 min
Histogram: 1 0 0 0 0 0 0 0 0 0
Nghost:    2969 ave 2969 max 2969 min
Histogram: 1 0 0 0 0 0 0 0 0 0
Neighs:    107054 ave 107054 max 107054 min
Histogram: 1 0 0 0 0 0 0 0 0 0

Total # of neighbors = 107054
Ave neighs/atom = 59.7066
Neighbor list builds = 0
Dangerous builds = 0
Total wall time: 0:00:02
