ITEM: TIMESTEP
0
ITEM: NUMBER OF ATOMS
1793
ITEM: BOX BOUNDS pp pp pp
0.0000000000000000e+00 2.8920000000000002e+01
0.0000000000000000e+00 2.8920000000000002e+01
0.0000000000000000e+00 3.8497500000000002e+01
ITEM: ATOMS id type xs ys zs
1 2 1.142240510273178e-06 1.142240510355197e-06 0.000807320863105068
65 2  0.06250186737295621  0.06250186737295627 0.0008032712420130815
129 2 3.115326254631764e-06  0.06250579386590457  0.04712062230986581
193 2  0.06250579386590463 3.115326254799535e-06  0.04712062230986584
257 1 5.269183420958852e-06 5.269183421015332e-06  0.09391211862348323
321 1  0.06250969257089294  0.06250969257089303  0.09391012632674076
2 2   0.1250028001763848 7.897558555540933e-07 0.0008025374968133317
130 2   0.1250073062962161  0.06250549776753998  0.04711620690674626
258 1    0.125012350474399 5.389907430865705e-06  0.09390988480032843
66 2   0.1875027586033728  0.06250108478059856 0.0007967262180016788
194 2   0.1875079549938893 2.898608581891679e-06  0.04711562326639726
322 1   0.1875130579793209   0.0625098332336152  0.09390660291781465
3 2    0.250002840089816 3.269989792088462e-07 0.0007961336836238839
131 2    0.250007038893058  0.06250507065099889  0.04711039129967156
259 1   0.2500118381109681 5.487899717600645e-06  0.09390678439847004
67 2   0.3125020137779607  0.06250037165942894 0.000790705947837871
195 2   0.3125054510306606 2.649019228583201e-06  0.04711091404700432
323 1   0.3125087793296313  0.06250982250583742  0.09390314438006825
4 2   0.3750011975596927 3.293598375639888e-08   0.0007918790973377
132 2   0.3750028457221011  0.06250473684377732  0.04710661852164053
260 1   0.3750047523735476 5.447573227134491e-06  0.09390462676974719
5 2   0.4999988024403071 3.293598369376078e-08 0.0007918790973376745
68 2   0.4374999999999999  0.06250009853419582 0.0007883605309410032
133 2   0.4999971542778988  0.06250473684377732  0.04710661852164055
196 2   0.4374999999999999 2.531743650382902e-06  0.04710905290248152
261 1   0.4999952476264524 5.447573227061909e-06  0.09390462676974717
324 1   0.4374999999999999  0.06250978106090868  0.09390178260812103
6 2   0.6249971599101838 3.269989792340389e-07 0.0007961336836239217
69 2   0.5624979862220393  0.06250037165942887 0.0007907059478378993
134 2   0.6249929611069417  0.06250507065099881  0.04711039129967159
197 2   0.5624945489693394 2.649019228637601e-06  0.04711091404700427
262 1   0.6249881618890317 5.487899717515906e-06  0.09390678439847007
325 1   0.5624912206703685  0.06250982250583749  0.09390314438006823
7 2   0.7499971998236151 7.897558555861885e-07 0.0008025374968132742
70 2    0.687497241396627  0.06250108478059857 0.0007967262180016764
135 2   0.7499926937037837  0.06250549776754008  0.04711620690674619
198 2   0.6874920450061105 2.898608581972489e-06   0.0471156232663973
263 1   0.7499876495256008 5.389907430837711e-06  0.09390988480032841
326 1   0.6874869420206788  0.06250983323361528   0.0939066029178147
8 2   0.8749988577594896 1.14224051031275e-06 0.0008073208631050291
71 2   0.8124981326270436  0.06250186737295621 0.0008032712420131116
136 2    0.874996884673745   0.0625057938659046  0.04712062230986597
199 2   0.8124942061340953 3.115326254823996e-06  0.04712062230986584
264 1   0.8749947308165789 5.26918342089694e-06  0.09391211862348328
327 1   0.8124903074291068  0.06250969257089302  0.09391012632674078
72 2               0.9375  0.06250221095580705 0.0008061344533866504
200 2   0.9374999999999999 3.170030130570586e-06  0.04712278351169739
328 1   0.9374999999999999  0.06250959171936013  0.09391160431110999
9 2 7.897558555577886e-07   0.1250028001763847 0.0008025374968133222
201 2  0.06250549776754002   0.1250073062962161  0.04711620690674619
265 1 5.389907430898655e-06   0.1250123504743989  0.09390988480032841
73 2  0.06250108478059854   0.1875027586033727 0.0007967262180016608
137 2 2.898608581937166e-06   0.1875079549938893  0.04711562326639728
329 1  0.06250983323361528   0.1875130579793209  0.09390660291781466
10 2   0.1250020459264798   0.1250020459264798 0.0007968490098827444
266 1   0.1250124041734548   0.1250124041734549   0.0939064530221309
202 2   0.1875074817512641   0.1250067745065137  0.04710984179669008
138 2   0.1250067745065138   0.1875074817512641  0.04710984179669009
74 2   0.1875018541574927   0.1875018541574927 0.0007890332703387728
330 1   0.1875128648968087   0.1875128648968086  0.09390122096139863
11 2   0.2500022322982534   0.1250010928199158 0.0007895232252968046
267 1   0.2500115902210941   0.1250123434159275  0.09390176850191786
203 2   0.3125051166109593   0.1250062969995239   0.0471041536499994
139 2    0.250006520337136   0.1875069212751546  0.04710264394313334
75 2   0.3125014850835944   0.1875010437629818 0.0007821759000169173
331 1     0.31250849640039   0.1875127158372253  0.09389640311693637
12 2   0.3750009744556321   0.1250004610508692 0.000784810174159413
268 1   0.3750045952325012    0.125012282472573  0.09389869724282623
13 2   0.4999990255443678   0.1250004610508693 0.0007848101741593908
204 2   0.4374999999999999   0.1250060982360754  0.04710197750533993
269 1   0.4999954047674987    0.125012282472573  0.09389869724282628
140 2   0.3750026322729482   0.1875065660445889  0.04709813316236482
76 2   0.4374999999999999   0.1875007249606136 0.0007795559920383586
141 2   0.4999973677270517   0.1875065660445888  0.04709813316236486
332 1   0.4374999999999999   0.1875126743532657  0.09389455482068602
14 2   0.6249977677017463   0.1250010928199159 0.0007895232252968089
205 2   0.5624948833890406    0.125006296999524   0.0471041536499994
270 1   0.6249884097789057   0.1250123434159275  0.09390176850191786
77 2   0.5624985149164055   0.1875010437629818 0.0007821759000169509
142 2   0.6249934796628638   0.1875069212751546  0.04710264394313341
333 1   0.5624915035996099   0.1875127158372254  0.09389640311693638
15 2   0.7499979540735201   0.1250020459264798 0.0007968490098827816
206 2   0.6874925182487359   0.1250067745065137   0.0471098417966901
271 1   0.7499875958265451   0.1250124041734548  0.09390645302213094
78 2   0.6874981458425071   0.1875018541574927 0.0007890332703387752
143 2   0.7499932254934861   0.1875074817512641  0.04710984179669013
334 1   0.6874871351031911   0.1875128648968087  0.09390122096139868
16 2   0.8749992102441443   0.1250028001763848 0.0008025374968132563
207 2   0.8124945022324598   0.1250073062962161  0.04711620690674621
272 1    0.874994610092569    0.125012350474399  0.09390988480032843
79 2   0.8124989152194013   0.1875027586033728 0.0007967262180016108
144 2    0.874997101391418   0.1875079549938893  0.04711562326639732
335 1   0.8124901667663846   0.1875130579793209  0.09390660291781464
208 2   0.9374999999999999   0.1250075223099121  0.04711903432668993
80 2   0.9374999999999999   0.1875031577422454 0.0008002020054731886
336 1   0.9374999999999999   0.1875131005166171  0.09390893761491598
17 2 3.269989791199974e-07    0.250002840089816  0.00079613368362395
209 2  0.06250507065099886    0.250007038893058  0.04711039129967164
273 1 5.48789971745445e-06   0.2500118381109682  0.09390678439847006
81 2  0.06250037165942895   0.3125020137779607 0.0007907059478378581
145 2 2.649019228702291e-06   0.3125054510306605  0.04711091404700424
337 1  0.06250982250583745   0.3125087793296313  0.09390314438006823
18 2   0.1250010928199159   0.2500022322982534 0.0007895232252967928
274 1   0.1250123434159275   0.2500115902210941  0.09390176850191789
210 2   0.1875069212751546   0.2500065203371359  0.04710264394313338
146 2    0.125006296999524   0.3125051166109594  0.04710415364999943
82 2   0.1875010437629818   0.3125014850835944 0.0007821759000169286
338 1   0.1875127158372253   0.3125084964003899  0.09389640311693637
19 2   0.2500014812231503   0.2500014812231503 0.0007812125474340539
275 1   0.2500113190460315   0.2500113190460315  0.09389556620341392
211 2    0.312504735412421    0.250006087682472   0.0470959867101318
147 2    0.250006087682472    0.312504735412421  0.04709598671013181
83 2   0.3125010245735981   0.3125010245735981  0.00077473330633431
339 1   0.3125082908742877   0.3125082908742876  0.09389070596792526
20 2   0.3750007060803371   0.2500009890726677 0.0007759804100457918
276 1   0.3750044353821761   0.2500111927522109    0.093891705968095
21 2   0.4999992939196626   0.2500009890726677 0.0007759804100457557
212 2   0.4374999999999999    0.250005932368284  0.04709347552837288
277 1   0.4999955646178237   0.2500111927522108  0.09389170596809497
148 2   0.3750024612159132   0.3125045108318599  0.04709099459724871
84 2   0.4374999999999999   0.3125008531810398 0.0007719156558125314
149 2   0.4999975387840865   0.3125045108318599  0.04709099459724881
340 1   0.4374999999999999   0.3125082216673724  0.09388858093224035
22 2   0.6249985187768495   0.2500014812231503 0.0007812125474340989
213 2    0.562495264587579    0.250006087682472  0.04709598671013181
278 1   0.6249886809539684   0.2500113190460315  0.09389556620341394
85 2   0.5624989754264017   0.3125010245735981 0.0007747333063343118
150 2   0.6249939123175278   0.3125047354124209   0.0470959867101317
341 1   0.5624917091257123   0.3125082908742876  0.09389070596792526
23 2   0.7499989071800839   0.2500022322982534 0.0007895232252967871
214 2   0.6874930787248452   0.2500065203371361   0.0471026439431334
279 1   0.7499876565840723   0.2500115902210942  0.09390176850191791
86 2   0.6874989562370181   0.3125014850835945 0.0007821759000169697
151 2   0.7499937030004759   0.3125051166109594  0.04710415364999947
342 1   0.6874872841627745     0.31250849640039  0.09389640311693638
24 2   0.8749996730010207   0.2500028400898159 0.000796133683623925
215 2   0.8124949293490009   0.2500070388930581  0.04711039129967159
280 1   0.8749945121002823   0.2500118381109681  0.09390678439847007
87 2    0.812499628340571   0.3125020137779607 0.0007907059478378093
152 2   0.8749973509807712   0.3125054510306606  0.04711091404700431
343 1   0.8124901774941624   0.3125087793296314  0.09390314438006828
216 2   0.9374999999999999   0.2500072981696513  0.04711399613549307
88 2   0.9374999999999999   0.3125022479344069 0.0007945881581935203
344 1               0.9375   0.3125089409837947  0.09390634680763794
25 2 3.293598373769855e-08   0.3750011975596927 0.0007918790973377342
217 2  0.06250473684377733   0.3750028457221011   0.0471066185216405
281 1 5.447573227208449e-06   0.3750047523735474   0.0939046267697472
89 2  0.06250009853419582   0.4374999999999999 0.0007883605309410197
153 2 2.531743650334905e-06   0.4374999999999998  0.04710905290248156
345 1  0.06250978106090867   0.4374999999999999  0.09390178260812106
33 2 3.293598374014586e-08   0.4999988024403071 0.0007918790973376634
225 2  0.06250473684377741   0.4999971542778988  0.04710661852164053
289 1 5.447573227113866e-06   0.4999952476264523  0.09390462676974715
26 2   0.1250004610508693   0.3750009744556321 0.0007848101741593866
282 1    0.125012282472573   0.3750045952325012  0.09389869724282626
218 2   0.1875065660445888   0.3750026322729482  0.04709813316236486
154 2   0.1250060982360754   0.4374999999999999  0.04710197750533997
90 2   0.1875007249606136   0.4374999999999999 0.0007795559920383459
346 1   0.1875126743532657   0.4374999999999999    0.093894554820686
34 2   0.1250004610508693   0.4999990255443678 0.000784810174159413
290 1   0.1250122824725731   0.4999954047674987  0.09389869724282625
226 2   0.1875065660445889   0.4999973677270517  0.04709813316236482
27 2   0.2500009890726677   0.3750007060803371 0.0007759804100457805
283 1   0.2500111927522108   0.3750044353821762  0.09389170596809497
219 2   0.3125045108318599   0.3750024612159132  0.04709099459724875
155 2    0.250005932368284   0.4375000000000001  0.04709347552837292
91 2   0.3125008531810398   0.4374999999999999 0.0007719156558125303
347 1   0.3125082216673724   0.4374999999999999  0.09388858093224038
35 2   0.2500009890726677   0.4999992939196627 0.000775980410045811
291 1   0.2500111927522109   0.4999955646178238    0.093891705968095
227 2   0.3125045108318599   0.4999975387840865  0.04709099459724867
28 2   0.3750005368534187   0.3750005368534187 0.0007705117827807343
284 1   0.3750043422302315   0.3750043422302314  0.09388750034407155
29 2   0.4999994631465812   0.3750005368534187 0.0007705117827807687
220 2               0.4375   0.3750024018865026  0.04708838476990247
285 1   0.4999956577697684   0.3750043422302315  0.09388750034407156
156 2   0.3750024018865025   0.4374999999999999  0.04708838476990255
92 2   0.4374999999999999   0.4374999999999999 0.0007690454452517761
157 2   0.4999975981134973   0.4374999999999999  0.04708838476990249
348 1               0.4375   0.4374999999999999  0.09388639336042119
36 2   0.3750005368534186   0.4999994631465812 0.0007705117827807619
292 1   0.3750043422302313   0.4999956577697686  0.09388750034407152
37 2   0.4999994631465811   0.4999994631465812 0.0007705117827807398
228 2               0.4375   0.4999975981134972  0.04708838476990249
293 1   0.4999956577697684   0.4999956577697685  0.09388750034407156
30 2   0.6249990109273321   0.3750007060803371 0.0007759804100457967
221 2     0.56249548916814   0.3750024612159132  0.04709099459724878
286 1    0.624988807247789   0.3750044353821761    0.093891705968095
93 2   0.5624991468189602               0.4375 0.0007719156558125056
158 2   0.6249940676317158               0.4375  0.04709347552837292
349 1   0.5624917783326275   0.4374999999999999   0.0938885809322404
38 2   0.6249990109273322   0.4999992939196627 0.0007759804100457998
229 2   0.5624954891681401   0.4999975387840866  0.04709099459724875
294 1    0.624988807247789   0.4999955646178238  0.09389170596809504
31 2   0.7499995389491306   0.3750009744556321 0.0007848101741593973
222 2    0.687493433955411   0.3750026322729481  0.04709813316236485
287 1   0.7499877175274269   0.3750045952325012  0.09389869724282629
94 2   0.6874992750393863   0.4374999999999999 0.0007795559920383044
159 2   0.7499939017639247   0.4374999999999999  0.04710197750533991
350 1   0.6874873256467341   0.4374999999999999  0.09389455482068593
39 2   0.7499995389491306   0.4999990255443678 0.000784810174159432
230 2   0.6874934339554111   0.4999973677270518  0.04709813316236486
295 1   0.7499877175274269   0.4999954047674987  0.09389869724282623
32 2   0.8749999670640162   0.3750011975596927 0.0007918790973376523
223 2   0.8124952631562224   0.3750028457221011  0.04710661852164049
288 1   0.8749945524267727   0.3750047523735476  0.09390462676974717
95 2   0.8124999014658041   0.4374999999999999 0.0007883605309410808
160 2   0.8749974682563495   0.4374999999999999  0.04710905290248152
351 1   0.8124902189390912   0.4374999999999999  0.09390178260812107
40 2   0.8749999670640162   0.4999988024403072 0.0007918790973376932
231 2   0.8124952631562224   0.4999971542778988  0.04710661852164053
296 1   0.8749945524267728   0.4999952476264523   0.0939046267697472
224 2               0.9375   0.3750029471572798   0.0471105926048031
96 2   0.9374999999999999   0.4374999999999999 0.0007923625510693899
352 1   0.9374999999999999               0.4375  0.09390526374405669
232 2   0.9374999999999999   0.4999970528427202  0.04711059260480308
385 1 7.472149199068961e-06  0.06251325400191363   0.1408579567820331
449 1   0.0625132540019136 7.472149199105782e-06   0.1408579567820331
513 1 8.754258633713429e-06 8.754258633705233e-06   0.1877995659875568
577 1  0.06251679422279152  0.06251679422279148   0.1878024701676345
386 1   0.1250173910515735  0.06251412290144305   0.1408579208768593
514 1   0.1250206926415554 9.845933029364095e-06   0.1878029078304834
450 1   0.1875180471983925 8.177270208163968e-06   0.1408581323539193
578 1   0.1875228490576726  0.06251921328497091   0.1878065804165454
387 1   0.2500164544612077  0.06251519993724408    0.140857342830844
515 1   0.2500200228922431 1.144563031211278e-05   0.1878067490935901
451 1   0.3125122573552198 8.800238707439634e-06   0.1408579715477962
579 1   0.3125154727132207  0.06252158333466244   0.1878094834598205
388 1   0.3750065165410018  0.06251572674872584   0.1408565110468756
516 1   0.3750080957366774 1.26991212292567e-05   0.1878088939556088
389 1   0.4999934834589981  0.06251572674872591   0.1408565110468756
452 1   0.4374999999999999 8.954684891463514e-06    0.140857789723023
517 1   0.4999919042633226 1.269912122926993e-05   0.1878088939556088
580 1               0.4375  0.06252240834961273   0.1878101557354987
390 1   0.6249835455387921  0.06251519993724415   0.1408573428308439
453 1   0.5624877426447801 8.800238707390758e-06   0.1408579715477963
518 1   0.6249799771077568 1.144563031210835e-05   0.1878067490935902
581 1   0.5624845272867792  0.06252158333466246   0.1878094834598205
391 1   0.7499826089484264  0.06251412290144311   0.1408579208768593
454 1   0.6874819528016074 8.177270208132287e-06   0.1408581323539193
519 1   0.7499793073584444 9.845933029334994e-06   0.1878029078304834
582 1   0.6874771509423273   0.0625192132849709   0.1878065804165454
392 1   0.8749925278508008  0.06251325400191365   0.1408579567820332
455 1   0.8124867459980862 7.472149199017982e-06   0.1408579567820331
520 1   0.8749912457413661 8.754258633706428e-06   0.1877995659875567
583 1   0.8124832057772085  0.06251679422279156   0.1878024701676345
456 1   0.9374999999999999 7.170910173272788e-06   0.1408577782396659
584 1   0.9374999999999999  0.06251578007392412   0.1878004084702639
457 1  0.06251412290144305   0.1250173910515736   0.1408579208768593
521 1 9.845933029275063e-06   0.1250206926415554   0.1878029078304834
393 1 8.177270208060047e-06   0.1875180471983925   0.1408581323539193
585 1  0.06251921328497088   0.1875228490576726   0.1878065804165454
522 1   0.1250228296167623   0.1250228296167623   0.1878065733408825
458 1   0.1875186636250267   0.1250184091219446   0.1408568992828992
394 1   0.1250184091219445   0.1875186636250267   0.1408568992828992
586 1   0.1875250539643111   0.1875250539643111   0.1878100844936915
523 1   0.2500213860968154   0.1250254936604317   0.1878099371111421
459 1   0.3125122404778264   0.1250190548458707   0.1408551482713853
395 1    0.250016612163856   0.1875191076721613   0.1408542910650527
587 1   0.3125160050343867   0.1875262945321554   0.1878108764500262
524 1   0.3750083376821123    0.125026811027291   0.1878108051101682
460 1               0.4375   0.1250192899150953   0.1408543292333016
525 1   0.4999916623178874    0.125026811027291   0.1878108051101681
396 1   0.3750064299610432   0.1875193480669242    0.140852275029327
397 1   0.4999935700389567   0.1875193480669242    0.140852275029327
588 1   0.4374999999999999   0.1875266840592454   0.1878107727302642
461 1   0.5624877595221733   0.1250190548458707   0.1408551482713853
526 1   0.6249786139031844   0.1250254936604317   0.1878099371111421
398 1   0.6249833878361439   0.1875191076721613   0.1408542910650527
589 1   0.5624839949656133   0.1875262945321554   0.1878108764500263
462 1   0.6874813363749731   0.1250184091219446   0.1408568992828992
527 1   0.7499771703832375   0.1250228296167622   0.1878065733408825
399 1   0.7499815908780553   0.1875186636250268   0.1408568992828992
590 1   0.6874749460356888   0.1875250539643112   0.1878100844936914
463 1   0.8124858770985569   0.1250173910515735   0.1408579208768593
528 1   0.8749901540669706   0.1250206926415554   0.1878029078304834
400 1   0.8749918227297918   0.1875180471983925   0.1408581323539193
591 1   0.8124807867150289   0.1875228490576726   0.1878065804165454
464 1   0.9374999999999999   0.1250168932364128    0.140858118550639
592 1               0.9375   0.1875217457386508    0.187804324356045
465 1  0.06251519993724408   0.2500164544612077    0.140857342830844
529 1 1.144563031213996e-05   0.2500200228922431   0.1878067490935902
401 1 8.800238707413455e-06   0.3125122573552198   0.1408579715477962
593 1   0.0625215833346624   0.3125154727132207   0.1878094834598205
530 1   0.1250254936604317   0.2500213860968154   0.1878099371111421
466 1   0.1875191076721613    0.250016612163856   0.1408542910650527
402 1   0.1250190548458708   0.3125122404778264   0.1408551482713853
594 1   0.1875262945321554   0.3125160050343867   0.1878108764500262
531 1   0.2500222778188117   0.2500222778188117   0.1878108170229226
467 1   0.3125121645383481   0.2500166837086195   0.1408510583153385
403 1   0.2500166837086194    0.312512164538348   0.1408510583153385
595 1    0.312516193199084   0.3125161931990841   0.1878098506933297
532 1   0.3750084228772925   0.2500226207975437   0.1878101684047211
468 1   0.4374999999999999   0.2500167006949525   0.1408497235512681
533 1   0.4999915771227073   0.2500226207975438   0.1878101684047211
404 1   0.3750063508012243   0.3125121067339346   0.1408482554903309
405 1   0.4999936491987755   0.3125121067339347    0.140848255490331
596 1               0.4375   0.3125162173346852   0.1878090630179522
469 1   0.5624878354616518   0.2500166837086195   0.1408510583153385
534 1   0.6249777221811882   0.2500222778188116   0.1878108170229226
406 1   0.6249833162913804   0.3125121645383481   0.1408510583153384
597 1   0.5624838068009158   0.3125161931990841   0.1878098506933296
470 1   0.6874808923278386   0.2500166121638558   0.1408542910650527
535 1   0.7499745063395683   0.2500213860968155   0.1878099371111421
407 1   0.7499809451541291   0.3125122404778264   0.1408551482713853
598 1   0.6874737054678445   0.3125160050343867   0.1878108764500263
471 1   0.8124848000627559   0.2500164544612078    0.140857342830844
536 1   0.8749885543696876   0.2500200228922431   0.1878067490935901
408 1   0.8749911997612924   0.3125122573552198   0.1408579715477962
599 1   0.8124784166653375   0.3125154727132206   0.1878094834598205
472 1   0.9374999999999999   0.2500162555881894    0.140858319242389
600 1   0.9374999999999999   0.3125149436566452   0.1878074580674713
473 1  0.06251572674872583   0.3750065165410018   0.1408565110468756
537 1 1.269912122937949e-05   0.3750080957366773   0.1878088939556087
409 1 8.954684891525425e-06   0.4374999999999999    0.140857789723023
601 1  0.06252240834961276   0.4374999999999999   0.1878101557354987
481 1  0.06251572674872587   0.4999934834589981   0.1408565110468756
545 1 1.26991212293751e-05   0.4999919042633226   0.1878088939556088
538 1    0.125026811027291   0.3750083376821125   0.1878108051101682
474 1   0.1875193480669242   0.3750064299610432    0.140852275029327
410 1   0.1250192899150953   0.4374999999999999   0.1408543292333016
602 1   0.1875266840592453   0.4374999999999999   0.1878107727302642
546 1    0.125026811027291   0.4999916623178874   0.1878108051101681
482 1   0.1875193480669242   0.4999935700389567   0.1408522750293271
539 1   0.2500226207975437   0.3750084228772925   0.1878101684047211
475 1   0.3125121067339347   0.3750063508012244    0.140848255490331
411 1   0.2500167006949525   0.4374999999999999   0.1408497235512681
603 1   0.3125162173346852   0.4374999999999999   0.1878090630179522
547 1   0.2500226207975437   0.4999915771227074   0.1878101684047211
483 1   0.3125121067339347   0.4999936491987756   0.1408482554903309
540 1   0.3750084201035715   0.3750084201035716    0.187808572317042
476 1   0.4374999999999999   0.3750063203056062   0.1408466507376553
541 1   0.4999915798964283   0.3750084201035714    0.187808572317042
412 1   0.3750063203056062   0.4374999999999999   0.1408466507376554
413 1   0.4999936796943937   0.4374999999999999   0.1408466507376553
604 1   0.4374999999999999   0.4374999999999999    0.187808026531523
548 1   0.3750084201035715   0.4999915798964283    0.187808572317042
484 1               0.4375   0.4999936796943938   0.1408466507376554
549 1   0.4999915798964283   0.4999915798964283    0.187808572317042
477 1   0.5624878932660652   0.3750063508012244    0.140848255490331
542 1   0.6249773792024561   0.3750084228772925   0.1878101684047211
414 1   0.6249832993050474               0.4375   0.1408497235512682
605 1   0.5624837826653147               0.4375   0.1878090630179522
485 1   0.5624878932660653   0.4999936491987754    0.140848255490331
550 1   0.6249773792024561   0.4999915771227073   0.1878101684047211
478 1   0.6874806519330757   0.3750064299610432    0.140852275029327
543 1   0.7499731889727088   0.3750083376821125   0.1878108051101682
415 1   0.7499807100849046   0.4374999999999999   0.1408543292333016
606 1   0.6874733159407546   0.4374999999999999   0.1878107727302642
486 1   0.6874806519330755   0.4999935700389567    0.140852275029327
551 1   0.7499731889727088   0.4999916623178874   0.1878108051101682
479 1    0.812484273251274   0.3750065165410018   0.1408565110468756
544 1   0.8749873008787706   0.3750080957366773   0.1878088939556088
416 1   0.8749910453151084   0.4374999999999999    0.140857789723023
607 1   0.8124775916503871   0.4374999999999999   0.1878101557354987
487 1   0.8124842732512739   0.4999934834589981   0.1408565110468757
552 1   0.8749873008787706   0.4999919042633226   0.1878088939556088
480 1   0.9374999999999999   0.3750065519263023   0.1408583119291917
608 1   0.9374999999999999   0.4374999999999999   0.1878086687897638
488 1   0.9374999999999999   0.4999934480736977   0.1408583119291917
641 1 9.925609073155554e-06  0.06251718631601118   0.2347400834299247
705 1  0.06251718631601121 9.92560907323149e-06   0.2347400834299247
769 1 8.462915665460382e-06 8.462915665478307e-06   0.2816735671830444
833 1  0.06251702593498769  0.06251702593498772   0.2816822459729748
642 1   0.1250238015193942  0.06251998917697393   0.2347476770642111
770 1   0.1250210315682235 1.00142571368552e-05   0.2816832862562111
706 1   0.1875241027561381 1.200618165798032e-05   0.2347481956492939
834 1   0.1875253038023157  0.06252132780529583   0.2816963012891774
643 1   0.2500234951749677  0.06252421964968004   0.2347566587289809
771 1   0.2500218506186113 1.246698787031348e-05   0.2816952826182147
707 1    0.312516877394154 1.438849431850268e-05   0.2347548414576646
835 1   0.3125187495456523  0.06252642811996835   0.2817084573523627
644 1   0.3750096411918006  0.06252761374378558   0.2347618418040079
772 1   0.3750092769194083 1.443992354620046e-05    0.281702342011602
645 1   0.4999903588081993  0.06252761374378564   0.2347618418040079
708 1   0.4374999999999999 1.577955850651616e-05   0.2347572736458894
773 1   0.4999907230805916 1.443992354611256e-05    0.281702342011602
836 1   0.4374999999999999  0.06252940647849339   0.2817134569210609
646 1    0.624976504825032     0.06252421964968   0.2347566587289809
709 1    0.562483122605846 1.438849431854485e-05   0.2347548414576646
774 1   0.6249781493813883 1.246698787030315e-05   0.2816952826182147
837 1   0.5624812504543477  0.06252642811996831   0.2817084573523627
647 1   0.7499761984806055  0.06251998917697398   0.2347476770642111
710 1   0.6874758972438617 1.200618165797177e-05   0.2347481956492938
775 1   0.7499789684317765 1.001425713689555e-05   0.2816832862562111
838 1   0.6874746961976842  0.06252132780529591   0.2816963012891773
648 1   0.8749900743909267  0.06251718631601126   0.2347400834299247
711 1   0.8124828136839888 9.925609073182256e-06   0.2347400834299247
776 1   0.8749915370843343 8.462915665486564e-06   0.2816735671830445
839 1   0.8124829740650122  0.06251702593498762   0.2816822459729748
712 1               0.9375 9.114726132261126e-06   0.2347363075014387
840 1   0.9374999999999999  0.06251541425521678    0.281675900357935
713 1  0.06251998917697391   0.1250238015193942   0.2347476770642111
777 1 1.001425713686205e-05   0.1250210315682235   0.2816832862562111
649 1 1.200618165795208e-05   0.1875241027561381   0.2347481956492939
841 1   0.0625213278052959   0.1875253038023156   0.2816963012891774
778 1   0.1250255145672504   0.1250255145672504   0.2816969751641028
714 1   0.1875277903303503   0.1250284747787871   0.2347580511946929
650 1   0.1250284747787871   0.1875277903303503    0.234758051194693
842 1   0.1875326130731954   0.1875326130731954   0.2817159800194971
779 1    0.250027209605531   0.1250328044395982   0.2817138813458573
715 1   0.3125191222148831   0.1250330866548647   0.2347657276877143
651 1   0.2500271692585877   0.1875323947486514   0.2347677518461749
843 1   0.3125241581178521   0.1875405598454927   0.2817311099492882
780 1   0.3750118175745073   0.1250391426200228   0.2817241726243285
716 1   0.4374999999999999   0.1250344730568954   0.2347676146077287
781 1   0.4999881824254925    0.125039142620023   0.2817241726243285
652 1   0.3750104971533679   0.1875343137477631   0.2347707577452149
653 1   0.4999895028466319   0.1875343137477631    0.234770757745215
844 1               0.4375   0.1875426675938825    0.281734233792944
717 1   0.5624808777851168   0.1250330866548647   0.2347657276877143
782 1   0.6249727903944688   0.1250328044395982   0.2817138813458573
654 1   0.6249728307414121   0.1875323947486515   0.2347677518461749
845 1   0.5624758418821477   0.1875405598454926   0.2817311099492881
718 1   0.6874722096696497   0.1250284747787871    0.234758051194693
783 1   0.7499744854327494   0.1250255145672505   0.2816969751641027
655 1   0.7499715252212128   0.1875277903303503    0.234758051194693
846 1   0.6874673869268044   0.1875326130731954   0.2817159800194972
719 1   0.8124800108230259   0.1250238015193943    0.234747677064211
784 1    0.874989985742863   0.1250210315682235   0.2816832862562111
656 1   0.8749879938183418    0.187524102756138   0.2347481956492939
847 1    0.812478672194704   0.1875253038023157   0.2816963012891773
720 1   0.9374999999999999   0.1250218738917059    0.234742632686562
848 1   0.9374999999999999    0.187522490380318   0.2816871168651547
721 1  0.06252421964968004   0.2500234951749678   0.2347566587289809
785 1 1.24669878702514e-05   0.2500218506186113   0.2816952826182147
657 1 1.438849431844532e-05   0.3125168773941538   0.2347548414576646
849 1  0.06252642811996838   0.3125187495456522   0.2817084573523627
786 1   0.1250328044395981    0.250027209605531   0.2817138813458573
722 1   0.1875323947486514   0.2500271692585876   0.2347677518461749