ITEM: TIMESTEP
0
ITEM: NUMBER OF ATOMS
1793
ITEM: BOX BOUNDS pp pp pp
0.0000000000000000e+00 2.8920000000000002e+01
0.0000000000000000e+00 2.8920000000000002e+01
0.0000000000000000e+00 3.8497500000000002e+01
ITEM: ATOMS id type xs ys zs
1 2 1.14224051034249e-06 1.14224051023674e-06 0.0008073208631050621
65 2  0.06250186737295622  0.06250186737295628 0.0008032712420130931
129 2 3.115326254727071e-06  0.06250579386590466  0.04712062230986592
193 2  0.06250579386590473 3.115326254822654e-06   0.0471206223098658
257 1 5.269183421020502e-06 5.269183420998331e-06  0.09391211862348324
321 1  0.06250969257089294  0.06250969257089295  0.09391012632674081
2 2   0.1250028001763847 7.897558556363952e-07 0.0008025374968133342
130 2    0.125007306296216  0.06250549776754005  0.04711620690674623
258 1    0.125012350474399 5.389907430992207e-06  0.09390988480032844
66 2   0.1875027586033728  0.06250108478059861 0.000796726218001663
194 2   0.1875079549938893 2.898608582005377e-06  0.04711562326639733
322 1   0.1875130579793209  0.06250983323361524   0.0939066029178147
3 2    0.250002840089816 3.269989792392504e-07 0.0007961336836238875
131 2    0.250007038893058  0.06250507065099881  0.04711039129967159
259 1   0.2500118381109681 5.487899717583719e-06  0.09390678439847008
67 2   0.3125020137779607  0.06250037165942895 0.0007907059478378955
195 2   0.3125054510306606 2.64901922860038e-06  0.04711091404700429
323 1   0.3125087793296313  0.06250982250583742  0.09390314438006823
4 2   0.3750011975596927 3.29359837342126e-08 0.0007918790973376848
132 2    0.375002845722101  0.06250473684377739  0.04710661852164054
260 1   0.3750047523735475 5.447573227097547e-06  0.09390462676974717
68 2   0.4374999999999999  0.06250009853419584 0.0007883605309409786
196 2   0.4374999999999999 2.531743650252431e-06  0.04710905290248153
324 1   0.4374999999999999  0.06250978106090867    0.093901782608121
5 2   0.4999988024403072 3.293598369147659e-08 0.0007918790973376934
133 2   0.4999971542778989  0.06250473684377746  0.04710661852164059
261 1   0.4999952476264523 5.44757322706041e-06  0.09390462676974713
9 2 7.897558555803986e-07   0.1250028001763848 0.0008025374968133044
201 2  0.06250549776754001   0.1250073062962161  0.04711620690674622
265 1 5.389907430897067e-06    0.125012350474399  0.09390988480032846
73 2  0.06250108478059856   0.1875027586033727 0.0007967262180016594
137 2 2.89860858198044e-06   0.1875079549938893  0.04711562326639735
329 1  0.06250983323361527   0.1875130579793208  0.09390660291781469
10 2   0.1250020459264798   0.1250020459264798 0.0007968490098827689
266 1   0.1250124041734548   0.1250124041734549   0.0939064530221309
202 2   0.1875074817512641   0.1250067745065137   0.0471098417966901
138 2   0.1250067745065137   0.1875074817512641   0.0471098417966901
74 2   0.1875018541574927   0.1875018541574927 0.000789033270338777
330 1   0.1875128648968086   0.1875128648968086  0.09390122096139868
11 2   0.2500022322982534   0.1250010928199159 0.0007895232252968258
267 1   0.2500115902210941   0.1250123434159275  0.09390176850191786
203 2   0.3125051166109594    0.125006296999524   0.0471041536499994
139 2    0.250006520337136   0.1875069212751546   0.0471026439431334
75 2   0.3125014850835944   0.1875010437629818 0.0007821759000169391
331 1     0.31250849640039   0.1875127158372253  0.09389640311693635
12 2   0.3750009744556321   0.1250004610508692 0.0007848101741593958
268 1   0.3750045952325012    0.125012282472573  0.09389869724282623
204 2   0.4374999999999999   0.1250060982360754  0.04710197750533995
140 2   0.3750026322729482   0.1875065660445889  0.04709813316236483
76 2   0.4374999999999999   0.1875007249606136 0.0007795559920383805
332 1               0.4375   0.1875126743532657  0.09389455482068602
13 2   0.4999990255443678   0.1250004610508693 0.0007848101741594037
269 1   0.4999954047674987   0.1250122824725731   0.0938986972428263
141 2   0.4999973677270517   0.1875065660445889  0.04709813316236479
17 2 3.269989791915965e-07   0.2500028400898161 0.000796133683623933
209 2  0.06250507065099886    0.250007038893058  0.04711039129967159
273 1 5.487899717526613e-06   0.2500118381109682  0.09390678439847004
81 2  0.06250037165942893   0.3125020137779607 0.0007907059478378689
145 2 2.649019228552698e-06   0.3125054510306606  0.04711091404700427
337 1  0.06250982250583741   0.3125087793296313  0.09390314438006825
18 2   0.1250010928199158   0.2500022322982533 0.0007895232252967873
274 1   0.1250123434159275   0.2500115902210942  0.09390176850191791
210 2   0.1875069212751546   0.2500065203371359   0.0471026439431334
146 2   0.1250062969995239   0.3125051166109594  0.04710415364999945
82 2   0.1875010437629818   0.3125014850835945 0.000782175900016931
338 1   0.1875127158372253   0.3125084964003899  0.09389640311693637
19 2   0.2500014812231503   0.2500014812231502 0.0007812125474340694
275 1   0.2500113190460315   0.2500113190460315  0.09389556620341391
211 2    0.312504735412421    0.250006087682472  0.04709598671013175
147 2    0.250006087682472    0.312504735412421  0.04709598671013179
83 2   0.3125010245735981   0.3125010245735981 0.0007747333063343187
339 1   0.3125082908742876   0.3125082908742876  0.09389070596792527
20 2   0.3750007060803371   0.2500009890726677 0.0007759804100458191
276 1   0.3750044353821761   0.2500111927522109  0.09389170596809501
212 2   0.4374999999999999   0.2500059323682839  0.04709347552837293
148 2   0.3750024612159132   0.3125045108318599  0.04709099459724877
84 2   0.4374999999999999   0.3125008531810398 0.0007719156558125388
340 1   0.4374999999999999   0.3125082216673724  0.09388858093224038
21 2   0.4999992939196627   0.2500009890726677 0.0007759804100457798
277 1   0.4999955646178236   0.2500111927522108  0.09389170596809499
149 2   0.4999975387840866   0.3125045108318599  0.04709099459724878
25 2 3.293598368488318e-08   0.3750011975596927  0.00079187909733772
217 2  0.06250473684377741    0.375002845722101  0.04710661852164055
281 1 5.447573227128441e-06   0.3750047523735475  0.09390462676974716
89 2  0.06250009853419584   0.4374999999999999 0.0007883605309410315
153 2 2.531743650365789e-06   0.4374999999999999   0.0471090529024815
345 1  0.06250978106090864   0.4374999999999999  0.09390178260812101
33 2 3.293598370210214e-08   0.4999988024403072 0.0007918790973376979
225 2   0.0625047368437774   0.4999971542778988  0.04710661852164053
289 1 5.447573227083655e-06   0.4999952476264524  0.09390462676974716
26 2   0.1250004610508692   0.3750009744556321 0.0007848101741594018
282 1   0.1250122824725731   0.3750045952325012  0.09389869724282626
218 2   0.1875065660445889   0.3750026322729481  0.04709813316236484
154 2   0.1250060982360753               0.4375  0.04710197750533993
90 2   0.1875007249606136   0.4374999999999999 0.0007795559920383339
346 1   0.1875126743532657   0.4374999999999999    0.093894554820686
34 2   0.1250004610508693   0.4999990255443678 0.0007848101741594199
290 1   0.1250122824725731   0.4999954047674987   0.0938986972428263
226 2   0.1875065660445888   0.4999973677270517  0.04709813316236486
27 2   0.2500009890726677   0.3750007060803371 0.0007759804100458126
283 1   0.2500111927522108   0.3750044353821762  0.09389170596809499
219 2   0.3125045108318598   0.3750024612159132   0.0470909945972488
155 2    0.250005932368284   0.4374999999999999  0.04709347552837286
91 2   0.3125008531810397   0.4374999999999999 0.0007719156558125264
347 1   0.3125082216673724   0.4374999999999999  0.09388858093224041
35 2   0.2500009890726677   0.4999992939196627 0.0007759804100457773
291 1   0.2500111927522108   0.4999955646178236  0.09389170596809499
227 2   0.3125045108318598   0.4999975387840866  0.04709099459724873
28 2   0.3750005368534187   0.3750005368534187 0.0007705117827807416
284 1   0.3750043422302315   0.3750043422302314  0.09388750034407158
220 2               0.4375   0.3750024018865026   0.0470883847699025
156 2   0.3750024018865026   0.4374999999999999  0.04708838476990251
92 2   0.4374999999999999   0.4374999999999999 0.0007690454452517849
348 1   0.4374999999999999   0.4374999999999999  0.09388639336042118
29 2   0.4999994631465811   0.3750005368534187 0.0007705117827807685
285 1   0.4999956577697685   0.3750043422302314  0.09388750034407155
157 2   0.4999975981134973   0.4374999999999999  0.04708838476990253
36 2   0.3750005368534187   0.4999994631465813 0.0007705117827807781
292 1   0.3750043422302315   0.4999956577697685  0.09388750034407153
228 2               0.4375   0.4999975981134973  0.04708838476990247
293 1   0.4999956577697685   0.4999956577697685  0.09388750034407155
37 2   0.4999994631465813   0.4999994631465812 0.000770511782780778
385 1 7.472149199078016e-06  0.06251325400191356   0.1408579567820331
449 1  0.06251325400191358 7.472149199203441e-06   0.1408579567820331
513 1 8.754258633603933e-06 8.754258633796794e-06   0.1877995659875568
577 1  0.06251679422279151  0.06251679422279142   0.1878024701676345
386 1   0.1250173910515735  0.06251412290144297   0.1408579208768593
514 1   0.1250206926415554 9.845933029435872e-06   0.1878029078304834
450 1   0.1875180471983925 8.177270208197304e-06   0.1408581323539193
578 1   0.1875228490576726  0.06251921328497084   0.1878065804165454
387 1   0.2500164544612077  0.06251519993724404    0.140857342830844
515 1   0.2500200228922431 1.144563031220709e-05   0.1878067490935901
451 1   0.3125122573552198 8.800238707438424e-06   0.1408579715477962
579 1   0.3125154727132207   0.0625215833346624   0.1878094834598205
388 1   0.3750065165410018  0.06251572674872588   0.1408565110468756
516 1   0.3750080957366773 1.269912122934558e-05   0.1878088939556088
452 1               0.4375 8.954684891440402e-06    0.140857789723023
580 1   0.4374999999999999  0.06252240834961278   0.1878101557354986
389 1   0.4999934834589981  0.06251572674872588   0.1408565110468757
517 1   0.4999919042633226 1.26991212293344e-05   0.1878088939556088
457 1  0.06251412290144301   0.1250173910515736   0.1408579208768593
521 1 9.845933029272058e-06   0.1250206926415555   0.1878029078304834
393 1 8.177270208082875e-06   0.1875180471983924   0.1408581323539193
585 1   0.0625192132849709   0.1875228490576726   0.1878065804165454
522 1   0.1250228296167623   0.1250228296167623   0.1878065733408825
458 1   0.1875186636250268   0.1250184091219446   0.1408568992828992
394 1   0.1250184091219446   0.1875186636250267   0.1408568992828992
586 1   0.1875250539643111   0.1875250539643111   0.1878100844936914
523 1   0.2500213860968154   0.1250254936604318   0.1878099371111421
459 1   0.3125122404778264   0.1250190548458708   0.1408551482713853
395 1   0.2500166121638559   0.1875191076721612   0.1408542910650527
587 1   0.3125160050343867   0.1875262945321553   0.1878108764500262
524 1   0.3750083376821125    0.125026811027291   0.1878108051101681
460 1   0.4374999999999999   0.1250192899150953   0.1408543292333016
396 1   0.3750064299610432   0.1875193480669242   0.1408522750293271
588 1   0.4374999999999999   0.1875266840592452   0.1878107727302642
525 1   0.4999916623178873   0.1250268110272909   0.1878108051101682
397 1   0.4999935700389566   0.1875193480669242    0.140852275029327
465 1  0.06251519993724411   0.2500164544612077    0.140857342830844
529 1 1.144563031223027e-05   0.2500200228922431   0.1878067490935901
401 1 8.800238707477682e-06   0.3125122573552198   0.1408579715477962
593 1   0.0625215833346624   0.3125154727132206   0.1878094834598205
530 1   0.1250254936604317   0.2500213860968155   0.1878099371111421
466 1   0.1875191076721613    0.250016612163856   0.1408542910650527
402 1   0.1250190548458708   0.3125122404778263   0.1408551482713853
594 1   0.1875262945321554   0.3125160050343867   0.1878108764500262
531 1   0.2500222778188116   0.2500222778188117   0.1878108170229226
467 1    0.312512164538348   0.2500166837086195   0.1408510583153384
403 1   0.2500166837086195    0.312512164538348   0.1408510583153385
595 1    0.312516193199084   0.3125161931990841   0.1878098506933297
532 1   0.3750084228772925   0.2500226207975437   0.1878101684047211
468 1   0.4374999999999999   0.2500167006949526   0.1408497235512681
404 1   0.3750063508012244   0.3125121067339347   0.1408482554903309
596 1               0.4375   0.3125162173346852   0.1878090630179522
533 1   0.4999915771227074   0.2500226207975438   0.1878101684047211
405 1   0.4999936491987755   0.3125121067339347    0.140848255490331
473 1  0.06251572674872581   0.3750065165410018   0.1408565110468756
537 1 1.269912122933964e-05   0.3750080957366773   0.1878088939556087
409 1 8.954684891491142e-06   0.4374999999999999    0.140857789723023
601 1  0.06252240834961269   0.4374999999999999   0.1878101557354987
481 1  0.06251572674872583   0.4999934834589981   0.1408565110468757
545 1 1.269912122928646e-05   0.4999919042633225   0.1878088939556088
538 1    0.125026811027291   0.3750083376821125   0.1878108051101682
474 1   0.1875193480669242   0.3750064299610432    0.140852275029327
410 1   0.1250192899150954   0.4374999999999999   0.1408543292333016
602 1   0.1875266840592452   0.4374999999999999   0.1878107727302642
546 1    0.125026811027291   0.4999916623178874   0.1878108051101681
482 1   0.1875193480669241   0.4999935700389567    0.140852275029327
539 1   0.2500226207975438   0.3750084228772925   0.1878101684047211
475 1   0.3125121067339347   0.3750063508012244    0.140848255490331
411 1   0.2500167006949526               0.4375   0.1408497235512681
603 1   0.3125162173346852               0.4375   0.1878090630179522
547 1   0.2500226207975438   0.4999915771227073   0.1878101684047211
483 1   0.3125121067339347   0.4999936491987754    0.140848255490331
540 1   0.3750084201035715   0.3750084201035715    0.187808572317042
476 1               0.4375   0.3750063203056061   0.1408466507376554
412 1   0.3750063203056061   0.4374999999999999   0.1408466507376553
604 1               0.4375   0.4374999999999999   0.1878080265315229
541 1   0.4999915798964283   0.3750084201035715    0.187808572317042
413 1   0.4999936796943938   0.4374999999999999   0.1408466507376554
548 1   0.3750084201035715   0.4999915798964284    0.187808572317042
484 1   0.4374999999999999   0.4999936796943938   0.1408466507376554
549 1   0.4999915798964283   0.4999915798964283    0.187808572317042
641 1 9.92560907321006e-06  0.06251718631601109   0.2347400834299247
705 1  0.06251718631601115 9.925609073279407e-06   0.2347400834299247
769 1 8.462915665478317e-06 8.462915665613502e-06   0.2816735671830444
833 1  0.06251702593498759  0.06251702593498765   0.2816822459729748
642 1   0.1250238015193942  0.06251998917697391   0.2347476770642111
770 1   0.1250210315682235 1.001425713691869e-05   0.2816832862562111
706 1   0.1875241027561381 1.200618165804611e-05   0.2347481956492939
834 1   0.1875253038023157  0.06252132780529582   0.2816963012891773
643 1   0.2500234951749678  0.06252421964967997   0.2347566587289809
771 1   0.2500218506186114 1.246698787031825e-05   0.2816952826182147
707 1   0.3125168773941538 1.438849431855482e-05   0.2347548414576646
835 1   0.3125187495456521  0.06252642811996836   0.2817084573523627
644 1   0.3750096411918006  0.06252761374378561   0.2347618418040079
772 1   0.3750092769194084  1.4439923546047e-05    0.281702342011602
708 1   0.4374999999999999 1.577955850651867e-05   0.2347572736458894
836 1   0.4374999999999999  0.06252940647849341   0.2817134569210609
645 1   0.4999903588081993  0.06252761374378568   0.2347618418040079
773 1   0.4999907230805916 1.443992354606455e-05    0.281702342011602
713 1  0.06251998917697395   0.1250238015193943   0.2347476770642111
777 1 1.001425713688181e-05   0.1250210315682234   0.2816832862562111
649 1 1.200618165799304e-05   0.1875241027561381   0.2347481956492939
841 1  0.06252132780529589   0.1875253038023156   0.2816963012891773
778 1   0.1250255145672504   0.1250255145672505   0.2816969751641027
714 1   0.1875277903303503   0.1250284747787872    0.234758051194693
650 1   0.1250284747787871   0.1875277903303503    0.234758051194693
842 1   0.1875326130731954   0.1875326130731954   0.2817159800194971
779 1    0.250027209605531   0.1250328044395981   0.2817138813458573
715 1   0.3125191222148831   0.1250330866548647   0.2347657276877143
651 1   0.2500271692585877   0.1875323947486514   0.2347677518461749
843 1   0.3125241581178521   0.1875405598454926   0.2817311099492882
780 1   0.3750118175745074   0.1250391426200229   0.2817241726243285
716 1   0.4374999999999999   0.1250344730568954   0.2347676146077287
652 1    0.375010497153368    0.187534313747763   0.2347707577452149
844 1   0.4374999999999999   0.1875426675938825   0.2817342337929439
781 1   0.4999881824254925   0.1250391426200229   0.2817241726243285
653 1    0.499989502846632    0.187534313747763    0.234770757745215
721 1     0.06252421964968   0.2500234951749678   0.2347566587289809
785 1 1.246698787024949e-05   0.2500218506186113   0.2816952826182147
657 1 1.438849431848531e-05   0.3125168773941538   0.2347548414576646
849 1  0.06252642811996836   0.3125187495456522   0.2817084573523628
786 1   0.1250328044395982    0.250027209605531   0.2817138813458573
722 1   0.1875323947486514   0.2500271692585878   0.2347677518461749
658 1   0.1250330866548647   0.3125191222148831   0.2347657276877143
850 1   0.1875405598454926   0.3125241581178521   0.2817311099492881
787 1   0.2500346257492833   0.2500346257492833   0.2817334029025742
723 1   0.3125204896465968   0.2500289251788239   0.2347718592159667
659 1   0.2500289251788239   0.3125204896465968   0.2347718592159667
851 1     0.31252659249882     0.31252659249882   0.2817397056173579
788 1   0.3750135017415956   0.2500373589487894   0.2817386506047822
724 1   0.4374999999999999   0.2500294243149696    0.234772376877068
660 1   0.3750107845985892   0.3125209452210459   0.2347724977402893
852 1   0.4374999999999999   0.3125272707493121   0.2817406022816619
789 1   0.4999864982584042   0.2500373589487894   0.2817386506047822
661 1   0.4999892154014107   0.3125209452210459   0.2347724977402892
729 1  0.06252761374378565   0.3750096411918006   0.2347618418040079
793 1 1.443992354612603e-05   0.3750092769194083    0.281702342011602
665 1 1.577955850660866e-05   0.4374999999999999   0.2347572736458893
857 1  0.06252940647849341   0.4374999999999999   0.2817134569210609
737 1  0.06252761374378557   0.4999903588081993   0.2347618418040079
801 1 1.443992354618321e-05   0.4999907230805916    0.281702342011602
794 1   0.1250391426200229   0.3750118175745074   0.2817241726243284
730 1    0.187534313747763    0.375010497153368   0.2347707577452149
666 1   0.1250344730568954   0.4374999999999999   0.2347676146077287
858 1   0.1875426675938825   0.4374999999999999   0.2817342337929439
802 1   0.1250391426200229   0.4999881824254925   0.2817241726243285
738 1   0.1875343137477631    0.499989502846632   0.2347707577452149
795 1   0.2500373589487894   0.3750135017415957   0.2817386506047822
731 1   0.3125209452210459   0.3750107845985892   0.2347724977402892
667 1   0.2500294243149697   0.4374999999999999   0.2347723768770679
859 1    0.312527270749312   0.4374999999999999   0.2817406022816619
803 1   0.2500373589487895   0.4999864982584042   0.2817386506047822
739 1    0.312520945221046   0.4999892154014107   0.2347724977402892
796 1   0.3750140619736038   0.3750140619736037   0.2817407469565305
732 1   0.4374999999999999   0.3750108450817935   0.2347721125271963
668 1   0.3750108450817936               0.4375   0.2347721125271963
860 1               0.4375   0.4374999999999999   0.2817405898458444
797 1   0.4999859380263962   0.3750140619736037   0.2817407469565305
669 1   0.4999891549182063               0.4375   0.2347721125271963
805 1   0.4999859380263963   0.4999859380263962   0.2817407469565305
804 1   0.3750140619736036   0.4999859380263962   0.2817407469565305
740 1   0.4374999999999999   0.4999891549182062   0.2347721125271963
897 1 6.133308756950048e-06   0.0625113239641111   0.3286151367549956
961 1  0.06251132396411113 6.13330875695712e-06   0.3286151367549957
1025 1 1.40811006591386e-06 1.408110065843897e-06   0.3755497605656035
1089 1  0.06250320756926345  0.06250320756926339    0.375560574162363
898 1   0.1250172850062969  0.06251342462902379    0.328628962927741
1026 1   0.1250066159740608 6.501155778560794e-07   0.3755628210980148
962 1   0.1875185069281349 7.327533893675713e-06   0.3286302474126283
1090 1   0.1875106674615551  0.06250320996838983   0.3755795283016711
899 1   0.2500208760788248  0.06251737860188597   0.3286473623659397
963 1   0.3125148639554193 8.453582026550613e-06   0.3286438323143435
1091 1   0.3125123262994777  0.06250433595377271    0.375598752621473
900 1   0.3750097983118893  0.06252079555626193   0.3286592421877889
964 1   0.4374999999999999 7.93123004555557e-06   0.3286485977299298
1092 1   0.4374999999999999  0.06250298216571926   0.3756052547128597
901 1   0.4999902016881106  0.06252079555626192   0.3286592421877889
969 1  0.06251342462902383   0.1250172850062969   0.3286289629277409
1033 1 6.501155777215794e-07   0.1250066159740608   0.3755628210980148
905 1 7.327533893590397e-06    0.187518506928135   0.3286302474126284
1097 1  0.06250320996838983   0.1875106674615552   0.3755795283016711
1034 1   0.1250075737468074   0.1250075737468073   0.3755792109837081
970 1   0.1875243016514249   0.1250233176395919   0.3286505929689653
906 1   0.1250233176395918   0.1875243016514249   0.3286505929689653
1098 1   0.1875179449445749   0.1875179449445748   0.3756079576389701
1035 1   0.2500172179157773   0.1250129278131392   0.3756049342215957
971 1   0.3125212162977699   0.1250322536880742   0.3286712418160252
907 1   0.2500312675759632   0.1875359831928091   0.3286789194333314
1099 1   0.3125244374639932   0.1875341578298337   0.3756421964081428
1036 1   0.3750104935801537   0.1250203365814011   0.3756241898565146
972 1   0.4374999999999998   0.1250390139177071   0.3286808455162561
908 1   0.3750156530989703   0.1875485614587478    0.328698014713731
1100 1   0.4374999999999999   0.1875504225502521    0.375662577917451
909 1   0.4999843469010297   0.1875485614587478    0.328698014713731
1037 1   0.4999895064198462   0.1250203365814011   0.3756241898565145
977 1  0.06251737860188596   0.2500208760788248   0.3286473623659397
913 1 8.453582026631179e-06   0.3125148639554193   0.3286438323143435
1105 1  0.06250433595377268   0.3125123262994777    0.375598752621473
1042 1   0.1250129278131391   0.2500172179157772   0.3756049342215957
978 1   0.1875359831928091   0.2500312675759632   0.3286789194333314
914 1   0.1250322536880742   0.3125212162977699   0.3286712418160252
1106 1   0.1875341578298337   0.3125244374639933   0.3756421964081428
1043 1   0.2500347679503341   0.2500347679503341   0.3756494820310142
979 1   0.3125323961854553   0.2500451993051729    0.328706829234474
915 1   0.2500451993051729   0.3125323961854553    0.328706829234474
1107 1   0.3125474455067448   0.3125474455067448   0.3756960001510366
1044 1   0.3750236189965581   0.2500598516119391    0.375687602770746
980 1   0.4374999999999999   0.2500483481536847   0.3287111055629284
916 1   0.3750184572852011   0.3125360907205784   0.3287153094843825
1108 1   0.4374999999999999   0.3125513770812137   0.3757017433972051
917 1   0.4999815427147989   0.3125360907205784   0.3287153094843826
1045 1   0.4999763810034419   0.2500598516119391   0.3756876027707459
985 1  0.06252079555626185   0.3750097983118892   0.3286592421877889
921 1 7.93123004555137e-06   0.4374999999999999   0.3286485977299299
1113 1  0.06250298216571912   0.4374999999999999   0.3756052547128597
993 1  0.06252079555626189   0.4999902016881106   0.3286592421877889
1050 1   0.1250203365814012   0.3750104935801537   0.3756241898565146
986 1   0.1875485614587478   0.3750156530989703    0.328698014713731
922 1   0.1250390139177072               0.4375   0.3286808455162561
1114 1   0.1875504225502521   0.4374999999999999    0.375662577917451
1058 1   0.1250203365814012   0.4999895064198462   0.3756241898565146
994 1   0.1875485614587478   0.4999843469010297   0.3286980147137311
1051 1   0.2500598516119391   0.3750236189965581    0.375687602770746
987 1   0.3125360907205784   0.3750184572852011   0.3287153094843826
923 1   0.2500483481536847   0.4374999999999999   0.3287111055629284
1115 1   0.3125513770812138   0.4374999999999998   0.3757017433972051
1059 1   0.2500598516119391   0.4999763810034419   0.3756876027707459
995 1   0.3125360907205783   0.4999815427147989   0.3287153094843825
1052 1   0.3750275114512416   0.3750275114512416   0.3757043537265509
988 1   0.4374999999999999   0.3750192271786526   0.3287166014370608
924 1   0.3750192271786526   0.4374999999999999   0.3287166014370609
1116 1   0.4374999999999999               0.4375   0.3757051048948843
925 1   0.4999807728213473   0.4374999999999999   0.3287166014370608
1053 1   0.4999724885487584   0.3750275114512416    0.375704353726551
1061 1   0.4999724885487583   0.4999724885487583   0.3757043537265509
1060 1   0.3750275114512416   0.4999724885487582   0.3757043537265509
996 1   0.4374999999999999   0.4999807728213472   0.3287166014370609
1154 1   0.1249915113472342  0.06248835395619062   0.4225117657000185
1225 1  0.06248835395619057   0.1249915113472341   0.4225117657000185
1290 1   0.1249658420796842   0.1249658420796842   0.4694642660853494
1345 1  0.06247656376825771  0.06247656376825773   0.4694550490704497
1226 1   0.1874943291720717   0.1249878822231335   0.4225305417543115
1291 1   0.2499771245995546   0.1249579508819707   0.4694831200878383
1346 1   0.1874760258732026  0.06246797615266864   0.4694694142529965
1155 1   0.2500003337320695  0.06248542217571496   0.4225330254348019
1227 1   0.3125059252599167   0.1249900038548953   0.4225559699782612
1292 1   0.3749933901590387    0.124957614984393   0.4695081907470203
1347 1   0.3124902335092944  0.06246922036510781   0.4694938245728182
1157 1   0.4999974928348931  0.06248470865187036   0.4225507708146827
1156 1   0.3750025071651068  0.06248470865187033   0.4225507708146827
1228 1   0.4374999999999999   0.1249859593365815   0.4225648187845038
1348 1               0.4375  0.06247728379531259   0.4695101146763588
1162 1   0.1249878822231335   0.1874943291720718   0.4225305417543115
1298 1   0.1249579508819708   0.2499771245995547   0.4694831200878383
1353 1  0.06246797615266868   0.1874760258732025   0.4694694142529965
1299 1   0.2499764857234381   0.2499764857234381   0.4695171985300886
1354 1   0.1874625318289116   0.1874625318289116    0.469479670773394
1163 1   0.2500061409269653   0.1875003229444417   0.4225629134419859
1355 1   0.3124874841147157   0.1874621399839629   0.4695125913020081
1165 1   0.4999894152638448   0.1875156250347181   0.4225972631506261
1164 1   0.3750105847361552   0.1875156250347181   0.4225972631506261
1356 1   0.4374999999999999   0.1874467869921271   0.4695247955971534
1233 1  0.06248542217571505   0.2500003337320696   0.4225330254348019
1170 1   0.1249900038548952   0.3125059252599166   0.4225559699782611
1306 1    0.124957614984393   0.3749933901590387   0.4695081907470203
1361 1  0.06246922036510779   0.3124902335092944   0.4694938245728181
1234 1   0.1875003229444417   0.2500061409269653    0.422562913441986
1362 1   0.1874621399839629   0.3124874841147156   0.4695125913020081
1235 1   0.3125271883685618   0.2500326626391058   0.4226213555866969
1171 1   0.2500326626391058   0.3125271883685617   0.4226213555866969
1363 1   0.3125213178263045   0.3125213178263045    0.469609328738578
1301 1   0.4999947836583925   0.2500039689056949   0.4695845815823441
1300 1   0.3750052163416074   0.2500039689056949   0.4695845815823441
1236 1   0.4374999999999998   0.2500721751303875    0.422671299459719
1364 1   0.4374999999999999   0.3126169561450745   0.4697460358190949
1172 1    0.375041701749351    0.312574818962377   0.4227052375751452
1173 1   0.4999582982506489   0.3125748189623771   0.4227052375751451
1369 1  0.06247728379531262               0.4375   0.4695101146763588
1178 1   0.1249859593365816   0.4374999999999999   0.4225648187845038
1241 1  0.06248470865187027   0.3750025071651068   0.4225507708146827
1249 1  0.06248470865187034    0.499997492834893   0.4225507708146827
1370 1    0.187446786992127   0.4374999999999999   0.4695247955971534
1242 1   0.1875156250347182   0.3750105847361553   0.4225972631506261
1250 1   0.1875156250347181   0.4999894152638448   0.4225972631506261
1371 1   0.3126169561450745   0.4374999999999999   0.4697460358190949
1179 1   0.2500721751303875   0.4374999999999999   0.4226712994597191
1307 1   0.2500039689056949   0.3750052163416074   0.4695845815823441
1243 1   0.3125748189623769   0.3750417017493511   0.4227052375751451
1315 1    0.250003968905695   0.4999947836583925   0.4695845815823441
1251 1    0.312574818962377   0.4999582982506489   0.4227052375751452
1372 1   0.4374999999999999   0.4374999999999999   0.4697752727132655
1180 1   0.3750443977414561   0.4374999999999999   0.4227156624606647
1244 1   0.4374999999999999   0.3750443977414561   0.4227156624606648
1308 1   0.3750842302734162   0.3750842302734163   0.4697802355823378
1181 1   0.4999556022585438   0.4374999999999999   0.4227156624606648
1309 1   0.4999157697265836   0.3750842302734163   0.4697802355823378
1317 1   0.4999157697265836   0.4999157697265837   0.4697802355823377
1316 1   0.3750842302734162   0.4999157697265836   0.4697802355823377
1252 1   0.4374999999999999   0.4999556022585438   0.4227156624606648
1410 1   0.1249535620973479  0.06245463448504181   0.5164177166066152
1481 1   0.0624546344850419    0.124953562097348   0.5164177166066152
1546 1   0.1249159341845654   0.1249159341845654   0.5632225759319294
1601 1  0.06244856658058016   0.0624485665805801   0.5632243123640175
1411 1   0.2499634464598521  0.06245547862149859   0.5164366819491271
1482 1    0.187437567338538   0.1249309388422957   0.5164204463916742
1547 1   0.2499132620821977   0.1249079064431701   0.5632335147663393
1602 1   0.1874353807427916  0.06244177018828351   0.5632308379888137