ITEM: TIMESTEP
1
ITEM: NUMBER OF ATOMS
1793
ITEM: BOX BOUNDS pp pp pp
0.0000000000000000e+00 2.8920000000000002e+01
0.0000000000000000e+00 2.8920000000000002e+01
0.0000000000000000e+00 3.8497500000000002e+01
ITEM: ATOMS id type xs ys zs
1 2 3.103112735576981e-07 1.174407743996324e-07 0.0008072259904903879
65 2  0.06250617677005792  0.06250077317376648 0.0008041609833745929
129 2 6.154615301374334e-06  0.06251035588233253  0.04712160929562339
193 2  0.06250545785682168 6.679986663921186e-06  0.04712339576751939
259 1   0.2500100272067014 1.457061817737078e-05  0.09389687528660226
321 1  0.06251949641070358  0.06251841926968374   0.0939017213798768
2 2   0.1249995664522342 2.10780985403568e-06 0.0008005636548063132
130 2   0.1250108757972001     0.06250713759574  0.04711980160234686
1217 1  0.06257180751624904 9.78543579088691e-05   0.4225254638617453
66 2   0.1875066228442193   0.0625040873546174 0.0007986974690509535
194 2   0.1875089737156311 5.131638090092984e-06  0.04711342790229855
322 1    0.187516303017776  0.06252056548679652  0.09389909084772478
1289 1 9.690300345459767e-05   0.1250859450772913   0.4695183615394581
131 2   0.2500034604690218  0.06250985045985497  0.04711207393570959
1027 1   0.2499786328265569 5.152481441934159e-05   0.3755846643096895
67 2    0.312496850320072  0.06250381058873872 0.0007881314575234536
195 2   0.3125097693105665 4.884698702867064e-06  0.04711084774551859
323 1   0.3125038422863464  0.06252075915805698  0.09389597076573443
1305 1 4.705883325713662e-05   0.3749975167164789   0.4695493352978543
132 2   0.3749994023076239  0.06250576343463123  0.04710583104841059
260 1   0.3749978445731267 1.520089032080501e-05  0.09389690995042253
68 2   0.4374985565319264  0.06250093524666075 0.0007868647437999604
196 2   0.4375020632842904 3.413997027751317e-06  0.04711079574412311
324 1   0.4374932698658267  0.06251843650516069  0.09389466990042424
1218 1   0.1875014283379894 6.334559949675505e-05   0.4225428304928828
133 2   0.4999981622757659   0.0625039749932479  0.04710560795499075
1356 1   0.4377073894783834   0.1873176688283388   0.4694026186181789
9 2 4.634431348139014e-06   0.1250001725487569 0.0008039056106661717
201 2  0.06250371111756836   0.1250058397028418  0.04711465206131742
1164 1   0.3750744223292181   0.1874814846546705   0.4225669965773677
73 2  0.06250038172282246   0.1874990771475634 0.0007996062744608852
137 2 6.012503338373827e-06   0.1875048742375323  0.04711339672767299
329 1  0.06252171213775212   0.1875150995519186    0.093895708229804
10 2   0.1250026783737746   0.1249971102945427 0.0007936616668739862
266 1   0.1250209240768887   0.1250211803150725  0.09389640351434858
202 2   0.1875119043394739    0.125010558876198  0.04710618381423641
138 2   0.1250104637780788   0.1875098958109387  0.04710628990440525
74 2   0.1875019815008652   0.1875047927987289 0.0007905202952080978
330 1   0.1875186749037333   0.1875178045628931  0.09389558941453159
11 2   0.2500067544706625    0.125000009564769 0.0007876103858216411
267 1   0.2500117845926417   0.1250235850602824  0.09389585653450964
203 2   0.3125024400322625   0.1250090482687566  0.04710524861418263
139 2    0.250003164559498   0.1875108001200225  0.04710131381240011
75 2   0.3124981399233182   0.1875061273225642 0.0007811683964209521
331 1   0.3125079581982978   0.1875209876670088  0.09389175171355907
12 2   0.3749967973590186   0.1250044004745206 0.0007886106134948029
268 1   0.3750002227978366   0.1250213559619935  0.09389229525744805
204 2   0.4375017000339326   0.1250010172465173   0.0471041047485158
140 2   0.3750009686003591   0.1875076406055078  0.04709992545205991
76 2    0.437500682279011   0.1874992343301081 0.0007799695644091789
332 1   0.4374966985163976   0.1875204606731467  0.09388899214656518
1049 1 8.064012272084797e-05   0.3749813098980637   0.3756288795995868
269 1   0.4999900372590992   0.1250204817441575  0.09389266163558775
141 2   0.4999929107833659   0.1875092228470078  0.04709700595154987
17 2 1.619638866575782e-06   0.2500005418866448 0.0007978421451435883
209 2  0.06250693669390887   0.2500083399580625  0.04711321984710307
916 1   0.3750927765529692    0.312562992196263   0.3287407700812883
81 2  0.06249877677892308   0.3125019955269502 0.0007874066392529472
145 2 2.964978524323335e-06   0.3125089662149022  0.04710775644952027
337 1  0.06252180536114629    0.312506355905501  0.09389347999885533
18 2   0.1249978517990684   0.2500060262641403 0.0007895417059093439
274 1   0.1250231712937713    0.250012723621382  0.09389394416876608
210 2   0.1875112428559466   0.2500016782572593  0.04710579369045412
146 2   0.1250065777754896   0.3125011592237237  0.04710068286156386
82 2   0.1875015917115171   0.3125047350674406 0.0007828397800199219
338 1   0.1875217556105799   0.3125077445328635  0.09388926359602948
19 2   0.2499997829379129   0.2500046746603828 0.0007806619024765375
275 1   0.2500173408491853   0.2500158327833591   0.0938918037330503
211 2   0.3125066851243817    0.250006110134212  0.04709749808496849
147 2   0.2500087114695602   0.3125009220178276   0.0470934639995829
83 2   0.3124961048123039   0.3125028706144308 0.0007737993994629057
339 1   0.3125125014948692   0.3125111605131564  0.09388787509487095
20 2   0.3750029380915504   0.2500018040981881 0.000774797172591521
276 1   0.3750063732374434   0.2500176163692103  0.09388830690630222
212 2   0.4374994864804642   0.2500079028814884  0.04708982940043647
148 2   0.3750002968217165   0.3125037055659942  0.04709008583404531
84 2   0.4374988491128781   0.3124980457010697 0.0007738468435840357
340 1   0.4375011940233179   0.3125125160836865    0.093884969488273
21 2   0.4999948499954736   0.2500035194363666  0.00077623535898404
277 1   0.4999926952871208   0.2500165451605923  0.09388805440004477
149 2   0.4999994413868454   0.3125051417410533  0.04709136372360118
25 2 1.14207787728174e-06   0.3750009321881672 0.0007935399333248066
217 2  0.06250452404701839   0.3750024742399536  0.04710785688700352
980 1   0.4375390021991256   0.2500425548851353   0.3287150741202522
89 2  0.06250273973849561   0.4374969908518294 0.0007895397123833557
153 2 6.697175768074008e-06   0.4374981086062633   0.0471091219224908
345 1  0.06252331825117013   0.4374951829872172  0.09389238405703283
1370 1   0.1876883589425436   0.4375894510801709   0.4696317220873708
225 2   0.0625019069764467   0.4999987951435078  0.04710764691949221
289 1 1.636449766594081e-05   0.4999899900353083  0.09389463293979118
26 2   0.1250012318080944   0.3750060511133233 0.0007828151605867626
282 1   0.1250232529046289   0.3749997340345013  0.09389032100392576
218 2   0.1875034710195866   0.3749996522821006  0.04709933269879013
154 2   0.1250069237704395   0.4374978057568615  0.04710045220103585
90 2   0.1874992357904234   0.4375042421380027 0.0007832456458355175
346 1   0.1875220145817058   0.4374962345999247  0.09388727292362983
34 2   0.1250008134007598   0.4999990259242952 0.0007817748696767729
290 1   0.1250240017072659   0.4999907646323325  0.09388821705347934
1297 1 8.134720497849478e-05   0.2500397832835611   0.4695504843888788
27 2   0.2500051370493847   0.3749973685950426 0.0007748832672645743
283 1   0.2500177464713634   0.3750032589639771  0.09388550028491273
219 2   0.3125040708082762   0.3749989891761201  0.04709063024140403
155 2   0.2500072942659137   0.4375044353177678  0.04709256274964427
91 2   0.3125036965288897   0.4374955551448715 0.0007698948959958917
347 1   0.3125127072082302   0.4374974337714655  0.09388654882005661
35 2   0.2500017705440484    0.499996776141247 0.000777980385688209
1116 1   0.4376982553292914    0.437596947239479   0.3756763520907548
227 2   0.3125012651748508   0.4999963944902067   0.0470938083211286
28 2    0.375000077268525   0.3750019285407645 0.0007740162789888727
284 1   0.3750081157190395    0.375005647987789  0.09388521176514511
220 2   0.4375015796588504   0.3750072387265076  0.04708956737090616
156 2   0.3749996655373205   0.4374990807080985  0.04708893390706867
92 2   0.4375040732381072   0.4375020716403068 0.0007655585983409584
348 1   0.4375025161481687   0.4375024111066576  0.09388576680918365
29 2   0.4999958890734386   0.3750054604221076 0.0007702031023526365
1057 1 8.473182007757186e-05   0.4999580603464266   0.3756077208087629
157 2   0.4999979588327506   0.4375051268022807   0.0470850957885167
261 1   0.4999890995963026 1.295737948226559e-05  0.09389586283717016
924 1   0.3751109664370253   0.4375280219642207   0.3287299332238107
771 1   0.2499928242569179 6.003870662234007e-05   0.2816792700807865
988 1   0.4375991225367745    0.375048017853207   0.3287280127002706
389 1   0.4999799522696324  0.06253181527374525   0.1408404846114951
1044 1   0.3751029493704459   0.2500723370270829   0.3756991988788123
1052 1   0.3751891407352094   0.3750767671802774   0.3757177807732722
1355 1   0.3125620567719251   0.1875031164573334   0.4695005576847471
577 1  0.06254196391168264  0.06254161771915319    0.187784054447562
386 1   0.1250281235081916  0.06253202266500985   0.1408436492435051
513 1 4.202435995491591e-05 3.440422954878263e-05   0.1877744991676745
1233 1  0.06259689071215722   0.2500685603586384   0.4226094404802033
578 1   0.1875253575780424  0.06254888429085431    0.187793231494385
387 1   0.2500125248483084   0.0625351089551487   0.1408450739379934
1115 1   0.3126592630464431   0.4375375724557999   0.3756959179993953
923 1   0.2500934843893887   0.4374937559421589   0.3287189530343055
579 1   0.3124989063174143  0.06255095854499101   0.1877949219899369
388 1   0.3749928567665087  0.06253523840065703   0.1408431630435256
987 1   0.3126169395240506   0.3750416734540202   0.3287407236774868
1051 1   0.2501339115675188   0.3750652328404501    0.375701280043441
580 1   0.4374763675239733  0.06254618294838091   0.1877899688422128
1163 1    0.250060990388883   0.1875842067156198   0.4225968049098922
1354 1   0.1875926611399824   0.1876101669237742     0.46955531739783
457 1  0.06253329716286109   0.1250292179143496   0.1408422930726687
1299 1   0.2501052489898593   0.2501125539172319   0.4695445295810735
1107 1   0.3126494770808884   0.3126000365883881   0.3757214161524855
585 1   0.0625495635025425   0.1875332990703878   0.1877911694568669
522 1   0.1250409816450652   0.1250461087147874    0.187794819669911
458 1   0.1875248378055752   0.1250349276195041   0.1408470355996912
394 1   0.1250338596338245   0.1875278295470741   0.1408453699538643
586 1   0.1875389022084477   0.1875453093472297   0.1878039129237041
523 1   0.2500204553891422   0.1250527363809619   0.1878018807272409
459 1   0.3125068530485407   0.1250371883735402   0.1408458373845335
395 1   0.2500209689240073   0.1875332021570562   0.1408477628604835
587 1   0.3125152247463289   0.1875473288898833   0.1878067749364324
524 1   0.3749930874616214   0.1250495125378284   0.1878005051438454
460 1   0.4374884624133201   0.1250344975437097   0.1408432871918868
396 1   0.3750022501956078   0.1875326411257891   0.1408452266222651
588 1   0.4374885389653811   0.1875391732497153   0.1878044749248051
1353 1  0.06261103388396587   0.1875993073095482   0.4695532097675295
1298 1    0.125127486403516   0.2501231637395501   0.4695819074337412
465 1  0.06253702803237703     0.25001600404824   0.1408409705258563
1162 1   0.1250939131293126   0.1876052114525771   0.4226011560372263
1348 1   0.4375475304223865  0.06247555551878085   0.4694893703329445
593 1  0.06255509436352313   0.3125075680828999   0.1877918248712452
530 1   0.1250502329205093    0.250028327281665   0.1878001189000159
466 1   0.1875320631927025   0.2500231903838512    0.140846171838489
402 1   0.1250384405822851   0.3125095653884288   0.1408431250543026
594 1   0.1875467790302693   0.3125185003219877   0.1878057812731755
531 1   0.2500346723863246   0.2500372042689127   0.1878084235722915
467 1   0.3125169060078373   0.2500266456043975   0.1408466003949723
403 1   0.2500272312033276   0.3125159832880234   0.1408457018030297
595 1   0.3125291571588578   0.3125243888368491   0.1878097525654912
532 1   0.3750102921877069   0.2500353165342222   0.1878088166342262
468 1   0.4374979283004124   0.2500250211392472   0.1408457244003851
404 1   0.3750117274666135   0.3125181837789422   0.1408457297017742
596 1   0.4375048462957911   0.3125225101199001   0.1878100614129863
1228 1   0.4375574610584551   0.1249174336278491   0.4225184240677903
1156 1   0.3749895392661287  0.06248306033124807   0.4225413561962252
473 1  0.06253992004125349   0.3749972839962313   0.1408395816230893
1242 1    0.187597798575849   0.3750920907969214   0.4226313859697414
915 1   0.2501024601554835    0.312571238986547   0.3287334966160787
601 1  0.06255568034753242   0.4374811935141332   0.1877878096825056
1170 1   0.1250992672647594   0.3125830684081891   0.4226323200535459
1347 1   0.3124974442858228  0.06250191899186314   0.4695084202504184
538 1   0.1250529530579223   0.3749974001084181   0.1877985153871286
474 1    0.187534786947656   0.3750016064672047    0.140843194712818
410 1   0.1250393412235288   0.4374895641692975   0.1408403569410466
602 1   0.1875450367707931   0.4374851251432338   0.1878033111061164
1306 1    0.125139310015936   0.3750842401572248    0.469612950201442
482 1   0.1875318217722833   0.4999821373318517   0.1408428030376316
539 1   0.2500399701241269   0.3750056031241775   0.1878083230266964
475 1   0.3125210972735523   0.3750067694767346   0.1408453309023386
411 1   0.2500273343757091   0.4374930118245642   0.1408445165311653
603 1     0.31252999660377    0.437494049785298   0.1878093450404671
547 1   0.2500323896370732   0.4999751081428742   0.1878059918263235
1114 1   0.1875818853396823   0.4375090461279414   0.3756654878469375
540 1   0.3750217221768651   0.3750121494013403   0.1878103154773376
476 1    0.437504876361283    0.375009854421368   0.1408459235523997
412 1   0.3750132158293525   0.4374995675709945    0.140845696817714
604 1   0.4375107496618453   0.4375031602630114   0.1878115457117081
1292 1   0.3750510927882715   0.1249439128071065   0.4694790965716079
1227 1   0.3125132978933556   0.1250152123690331   0.4225651447300209
548 1   0.3750155040239346   0.4999870076807192    0.187810859884171
772 1   0.3749617618714743 4.972469422400463e-05   0.2816717863421975
922 1   0.1250654321773836   0.4374789251078381   0.3286888321257059
1155 1   0.2499999290527276  0.06254180575388414   0.4225590610489072
986 1   0.1875878490112258   0.3750234721426866    0.328714283443761
1346 1   0.1875311745638212  0.06256437415652932   0.4695212852822053
833 1  0.06256200820946071  0.06256937140474646    0.281676995897487
642 1    0.125041923036175  0.06256056098659922   0.2347365080190975
1050 1   0.1250742545532217   0.3750288401849562   0.3756636877279218
1361 1  0.06260354896260649   0.3125626768744706   0.4695828065468161
834 1    0.187528444655245  0.06257460254137337   0.2816937232490149
643 1   0.2500112139937245   0.0625641793283378   0.2347457642015185
1178 1   0.1250973923352998   0.4375158451206005   0.4226418902797683
1113 1  0.06257458310376925   0.4374791578435636   0.3756491117462937
835 1   0.3124891388979172   0.0625638359961818   0.2816982578425316
644 1   0.3749790769322222  0.06255778121376732   0.2347439999380807
1369 1  0.06256697201043825     0.43750287672734   0.4695739932097162
1234 1    0.187597098636189   0.2501179654749741   0.4226214779999131
836 1   0.4374639288882904  0.06254273328748076   0.2816874443530889
1291 1   0.2500316621231921   0.1250416702910822   0.4695251613719792
1226 1   0.1875534456846046   0.1250867812131226    0.422580647966308
713 1   0.0625578761923922   0.1250527821214031    0.234736930346574
985 1  0.06257211892235645   0.3749949049827374   0.3286781283024955
1345 1  0.06258812545478538  0.06260912371381849   0.4695087261169213
841 1  0.06257302089286271   0.1875540719215912   0.2817010407359682
778 1   0.1250580467843175   0.1250754390949605    0.281701837606978
714 1   0.1875388509102118   0.1250665660564864   0.2347543762815663
650 1   0.1250576857899682    0.187553713363626   0.2347550211584112
842 1   0.1875590905330489     0.18757786891695   0.2817274566999258
779 1   0.2500269379561488   0.1250794014434776   0.2817185076541596
715 1   0.3125068786302331   0.1250660169893843   0.2347615187190783
651 1   0.2500370884483292   0.1875646965345881   0.2347705129091761
843 1   0.3125296992633359   0.1875764542888394   0.2817428312540831
780 1   0.3749887845475641   0.1250606887401872   0.2817206232742229
716 1   0.4374755796177568   0.1250495414379427   0.2347551499327852
652 1   0.3750025167222987   0.1875549725980905   0.2347711650109643
844 1   0.4374901740973799   0.1875442971703836   0.2817324302525296
1241 1  0.06258551349729016   0.3750182011256164   0.4226246851818505
1290 1    0.125089956881438   0.1251063044496221   0.4695392353032212
721 1  0.06256601611006864   0.2500281160627489   0.2347474225376631
1172 1   0.3752385909289132   0.3125999203485764   0.4226734846237435
1225 1  0.06259212533454127   0.1250976872866054   0.4225700979032394
849 1  0.06257430248145335    0.312513669485257   0.2817107452388006
786 1   0.1250726941140534   0.2500520526933112   0.2817242774106524
722 1   0.1875575431997596   0.2500477341047159   0.2347706145634296
658 1   0.1250650950540366   0.3125190740434677   0.2347621572914184
850 1   0.1875769899460893   0.3125405584868934   0.2817442033540788
787 1   0.2500652652826246   0.2500712684336879   0.2817503663966193
723 1   0.3125338162094656   0.2500512873754459    0.234778209666784
659 1    0.250054715574118   0.3125324018635864   0.2347781474571784
851 1   0.3125684316836567   0.3125499072887336   0.2817589423230036
788 1    0.375031475072782   0.2500580481157399   0.2817527337846782
724 1   0.4374995900810373   0.2500370525890812   0.2347747492365676
660 1   0.3750296114208849   0.3125330294619265   0.2347800217342551
852 1   0.4375324954553689   0.3125364825364288    0.281751725886573
1154 1   0.1250569512905486  0.06259311809181074   0.4225560212303068
1041 1 8.608004575116921e-05   0.2500257793084536   0.3756233096356466
729 1  0.06256764256836057   0.3749907076942314   0.2347463316799173
1316 1   0.3752823797424127   0.5003012667507845   0.4693710623560806
961 1  0.06256294294061661 7.797415601640847e-05   0.3286130809941952
857 1   0.0625704584010167   0.4374701781044804   0.2817043963605709
1371 1   0.3127620799766913   0.4377233265096349   0.4694914032145767
1308 1    0.375404990194614   0.3751765439178552   0.4695769648369267
794 1   0.1250710112238997   0.3750002209459667   0.2817276566298768
730 1   0.1875606527201717   0.3750029994932863   0.2347712978490788
666 1   0.1250603159781146   0.4374763302869246    0.234757123568905
858 1   0.1875665193830466   0.4374779679399595   0.2817364155293693
1108 1   0.4376451056097742   0.3125579398446126   0.3756936936060618
738 1   0.1875475719060666   0.4999617123149933    0.234763061998157
795 1   0.2500785904964773   0.3750169742845648   0.2817528987965672
731 1   0.3125485382097502   0.3750140155288338   0.2347799276608237
667 1   0.2500514328321644   0.4374853490191337   0.2347748247013686
859 1   0.3125698342941517   0.4374958295387846     0.28175286451854
803 1   0.2500517914821559   0.4999607766824888   0.2817369408441386
739 1   0.3125336444503963   0.4999749135613156    0.234774984469882
796 1   0.3750650746918496   0.3750281109647884   0.2817579721641822
732 1   0.4375219320878576   0.3750186860165037   0.2347796986410556
668 1   0.3750356552434408   0.4375012561277202   0.2347797061091575
860 1   0.4375510126206891   0.4375213150676491   0.2817504677081009
1161 1 9.067720461365675e-05   0.1875564340054472   0.4225760870122496
1169 1  7.7682558762032e-05   0.3125082782070481   0.4225968643315496
1153 1 9.772769420598491e-05  0.06259426328518587   0.4225333511053685
1026 1   0.1250359989862587 8.103042378764513e-05   0.3755771272339595
962 1   0.1875093524084724 6.820103196589118e-05   0.3286280002956897
1244 1   0.4378170047409026   0.3751215895590603   0.4226376361236178
1364 1   0.4378976362518942   0.3125410264464998   0.4695298020553657
1180 1   0.3752967267790228   0.4376263344818977   0.4226352637185843
1089 1  0.06257625471271715  0.06259308302704816   0.3755867622846428
898 1   0.1250505025439024  0.06258436155914063   0.3286401030843029
1236 1   0.4376826929654813   0.2499952495840204   0.4226006242543708
1300 1   0.3751847781438923    0.249944253893561   0.4694585819024958
1090 1   0.1875266002477146  0.06257750490040881   0.3756023697425985
899 1    0.250004674151687  0.06256825994712895    0.328650314269396
1363 1   0.3126728964726708   0.3126142469469381   0.4695107624777018
1091 1   0.3124823876668259  0.06253191370619042   0.3756004643561385
900 1   0.3749713080850079  0.06253474771924275   0.3286437934987994
1171 1   0.2501247534465657   0.3126263610516811   0.4226340636853963
1092 1     0.43748486613006  0.06248124751877517   0.3755758356997572
1372 1   0.4380372309042583   0.4377790899482532   0.4694894642949106
969 1  0.06257670387490528   0.1250778532901894   0.3286475440704877
1235 1   0.3126136287862415   0.2500815339509093   0.4226166658495764
1362 1   0.1876408893845708   0.3126511214553604   0.4695889534722656
1097 1  0.06258820161313169   0.1875757440377753    0.375627625950495
1034 1   0.1250702555207958   0.1250957164908114   0.3756187176237523
970 1   0.1875477151947367   0.1250886913250663   0.3286687782316602
906 1   0.1250748265586093   0.1875821124523145   0.3286770591937447
1098 1   0.1875718647848919   0.1876011483395852    0.375647802819083
1035 1   0.2500279228784687   0.1250727278771024   0.3756275592358891
971 1   0.3125087637186865   0.1250662913669245   0.3286779150140706
907 1   0.2500552702209244   0.1875922456204635   0.3287005644942149
1099 1   0.3125500203234044   0.1875710254156189   0.3756577076978208
1036 1   0.3750031664921353   0.1250102248908737   0.3756156975412627
972 1   0.4374839763133107   0.1250219018284023   0.3286634373219436
908 1    0.375023342255885   0.1875626077388633   0.3287081371295717
1100 1   0.4375469102008167   0.1875013596222109   0.3756376548417744
1243 1   0.3127294892807879   0.3751231783742139   0.4226703595812572
1307 1   0.2501389610203274   0.3751891971062746    0.469537969813876
977 1  0.06258072575034231    0.250045110489624   0.3286737191659068
1179 1   0.2501370058698175   0.4375810711489827   0.4226169156467835
1105 1  0.06258112312582517   0.3125307654601644   0.3756501276724295
1042 1   0.1250869248765991   0.2500825932634179    0.375655299042325
978 1   0.1875811053034656   0.2500832895682619    0.328705463579358
914 1     0.12507812993622   0.3125415938408585   0.3286958890219354
1106 1   0.1875945704107917    0.312583978576451   0.3756767745587904
1043 1   0.2500926576482849    0.250106343346828   0.3756795057105508
979 1   0.3125764603524345   0.2500877296623579   0.3287335580902104
1177 1 6.339850167451025e-05   0.4374740107020274   0.4225847152722994
705 1   0.0625479172397882 5.068185502175773e-05   0.2347201677331824
770 1   0.1250361939242166 6.533308450221158e-05   0.2816726098318591
452 1   0.4374834104326849 2.808352918837621e-05   0.1408402627213992
257 1 1.611057693918948e-05 1.350251362967543e-05  0.09390201956761363
516 1   0.3749809597994175 4.240122718535887e-05   0.1877850409844363
451 1   0.3124989710819676 2.85776733081111e-05   0.1408423412105661
397 1   0.4999845701074642   0.1875285905336098   0.1408449991652043
525 1   0.4999737521205492   0.1250393290564549   0.1877952407188948
963 1   0.3124664884840402 4.829947108645026e-05   0.3286268753477433
802 1   0.1250567859951863   0.4999544854882229   0.2817127210038368
994 1   0.1875550740434296    0.499958032111928   0.3286867213962623
1058 1   0.1250719111978044   0.4999611489389372    0.375654599628019
964 1   0.4374565314347647 2.89330291060855e-05   0.3286095135228776
708 1   0.4374631946282093 4.851190614822806e-05   0.2347216446482348
773 1   0.4999603481681271 3.981002210334073e-05   0.2816526368835192
545 1 5.504836494286815e-05   0.4999738861758873   0.1877774100057127
1025 1 9.517419456867646e-05 8.973648662595619e-05   0.3755532636129754
291 1   0.2500170563417639   0.4999924455983716  0.09388930231266618
292 1   0.3750061296348161   0.4999955007891735  0.09388597926914163
515 1   0.2500059405543346 4.205982552718565e-05   0.1877881687930445
481 1  0.06253937630722507   0.4999812572802904   0.1408376175035342
546 1   0.1250485706601348   0.4999710968408222   0.1877942921605963
483 1   0.3125180576919904   0.4999870256384699   0.1408460881214218
450 1   0.1875189191469798 2.703787861672991e-05   0.1408430482221069
409 1 3.503413835852138e-05   0.4374884157129016   0.1408368194652282
393 1 3.194961676710859e-05   0.1875211056677835   0.1408388569527278
665 1 7.353327459741108e-05   0.4374727985137278    0.234726606640606
657 1 6.960745782867428e-05   0.3125003421987173   0.2347331763850709
385 1 2.921577458614989e-05  0.06252645873092368   0.1408393542642929
649 1 6.443865181602506e-05   0.1875316503317188   0.2347314568749192
645 1   0.4999642999130656  0.06254308341199601   0.2347310205183197
281 1 1.766500088113548e-05   0.3749998299052336  0.09389543227231736
641 1 5.827877996420957e-05  0.06254867942580605   0.2347194128997048
921 1 8.705282845643908e-05    0.437463555269208   0.3286509564945408
537 1 5.454099254015311e-05   0.3749905876200824   0.1877817134328202
273 1 1.610401403745764e-05   0.2500107347953624  0.09389414206109055
401 1 3.447019629075204e-05   0.3125039962757374   0.1408384106560154
529 1 5.116984996491541e-05   0.2500149045088316   0.1877843397044503
777 1 7.446724548604544e-05   0.1250523003042265   0.2816766607124054
521 1 4.598533542419248e-05   0.1250342093918572   0.1877814660305701
514 1   0.1250307651869666 3.910458340824439e-05   0.1877840188108983
265 1 1.570901490379358e-05   0.1250174439366249  0.09389946507640551
913 1 8.37202598119861e-05     0.31249882397596   0.3286581916708727
449 1  0.06252907414187561 2.427231882535267e-05   0.1408405174509355
801 1 8.93847155920449e-05    0.499958408770586   0.2816762156498543
737 1  0.06256472258377346   0.4999628163949242   0.2347370956490659
905 1 8.500601016025693e-05   0.1875435888267103   0.3286460088068403
1033 1 9.066499686772885e-05   0.1250704515489154   0.3755935282298057
706 1   0.1875176481226114 5.387269240605921e-05   0.2347311835307636
707 1   0.3124839673244493 5.29348609441101e-05    0.234731461272125
897 1 8.35204054030479e-05  0.06257322335400653   0.3286167452170878
793 1 8.15347677985087e-05   0.3749804276968454    0.281688774791271
258 1   0.1250189482498679 1.397907057083372e-05   0.0939013925140386
785 1 7.880951231959455e-05    0.250018701899374   0.2816904228273321
993 1  0.06257307152618462   0.4999535300013422    0.328666160586387
769 1 7.098344154387367e-05 6.212187783575994e-05    0.281653678988053
517 1   0.4999700330266064 3.90834366735242e-05    0.187777126476671
1282 1   0.1250359825645717 8.431254675172647e-05   0.4694998799789012
1219 1   0.3124652348519581 2.428097282521684e-05   0.4225427729174764
1283 1   0.2499820202586658 3.473139278669404e-05   0.4695092650640658
1028 1   0.3749578653426585 2.226257706513991e-05   0.3755752650564525
1284 1   0.3749865576416684 1.215148814467748e-05   0.4695005470015252
1281 1 0.0001097814394702129 0.0001117524826853553   0.4694756128179925
1410 1   0.1250714285838364  0.06259606107671849   0.5164791383946092
1481 1  0.06261498238336224   0.1251194374325653   0.5164879928744678
1546 1   0.1251264734574127   0.1251329831251605   0.5632846986164344
1601 1  0.06260673043111546  0.06263106322295103   0.5632697237945512
1411 1   0.2500211235119172  0.06252873826741712   0.5164766750318507
1482 1   0.1875768955319219   0.1250834690541298   0.5164937202842566
1547 1   0.2500748920167351   0.1250443860191499   0.5632644601940882
1602 1   0.1875561119208849  0.06256083244552313   0.5632785857514576
1412 1   0.3750459827429123  0.06250965061116449   0.5164526144732827
1483 1   0.3125464152862559   0.1249940297909059   0.5164467646413955
1548 1   0.3751493956726417   0.1250522762815894   0.5632068586476573
1603 1   0.3125602733960052  0.06254329563605239   0.5632569398884644
1484 1   0.4376679578770852   0.1249764228227879   0.5164237135759938
1604 1    0.437575456539073  0.06247788270093704   0.5632170014651616
1418 1   0.1251407424007357   0.1876393940928737   0.5165144670827065
1489 1  0.06262583692007871    0.250104114696684   0.5165209330123191
1554 1   0.1252180138466684   0.2501978632144835   0.5633055659413955
1609 1  0.06264708940704002   0.1876396961990764   0.5632874920685222
1419 1   0.2500835302140055   0.1875642942215482   0.5164717080779694
1490 1   0.1876705020073279   0.2501686173612275   0.5165198780284082
1555 1   0.2502058036540818    0.250148043127864    0.563231901930872
1610 1    0.187660119007481   0.1876504022481149   0.5632865378919358
1420 1   0.3751468599295551   0.1873927880182114   0.5163553125197046
1491 1   0.3126231642422227   0.2500022938118736   0.5163777766570974
1556 1   0.3752177752114759   0.2497958420888091   0.5629643833605351
1611 1   0.3126128241604546    0.187490405813871   0.5631842101467122
1492 1   0.4379390704153255   0.2496188133558263   0.5161274154143504
1612 1   0.4378578044606514   0.1875419065844592   0.5631496928213674
1426 1   0.1251819409039869   0.3126495237197439   0.5165515173993446
1497 1  0.06256632198144212    0.375043321549169   0.5165235798131812
1562 1   0.1251419619811505    0.375107659548285   0.5633139338843773
1617 1  0.06258287763557512   0.3125821696001889   0.5632948855621497
1427 1   0.2502038124935191   0.3126921633477981   0.5164681904073605
1498 1   0.1877829064381114   0.3751926908147543   0.5165783316796051
1563 1   0.2505926280979738   0.3753329385303967   0.5633067327756944
1618 1   0.1878455314118995   0.3127706696462441   0.5633098710156076
1428 1   0.3752507640589099   0.3124169381801513   0.5161989794391941
1499 1   0.3126439128276416   0.3752865458970017   0.5162518016660694