ITEM: TIMESTEP
1
ITEM: NUMBER OF ATOMS
1793
ITEM: BOX BOUNDS pp pp pp
0.0000000000000000e+00 2.8920000000000002e+01
0.0000000000000000e+00 2.8920000000000002e+01
0.0000000000000000e+00 3.8497500000000002e+01
ITEM: ATOMS id type xs ys zs
1 2 1.724151278790152e-06 -7.477443841006327e-07 0.0008090685045161352
65 2   0.0625028986869773  0.06250177378827124 0.0008024381490832252
129 2 1.005233143756186e-06  0.06250388256562217  0.04712093133431389
193 2  0.06250772353995308 3.991862282444783e-06  0.04712082466987853
484 1   0.4374967989927912   0.4999901744107872   0.1408464644498816
321 1  0.06250396260590653  0.06251072049688165  0.09390441830533186
2 2   0.1250024505335715 1.39158699266397e-06 0.000803277684337818
130 2   0.1250053822965214   0.0625072459727348  0.04711750126152067
258 1   0.1250114435546737 5.524893832708012e-06  0.09390360638775073
66 2   0.1875019998265103   0.0625030795079871 0.0007973449457174789
194 2   0.1875074765043979 5.258024531740635e-06  0.04711507462787861
322 1   0.1875139140502086  0.06251031680325607  0.09390122551733389
3 2   0.2500019280212709 -1.622505803673693e-06 0.0007944469327079583
131 2   0.2500064370880856  0.06250452508428343  0.04710865186737634
259 1   0.2500158556753243 5.72169781284364e-06  0.09390083733405513
67 2    0.312500041588435  0.06250248412699844 0.0007891189245212937
195 2   0.3125053157135121 3.045338251861093e-06  0.04710941223177054
323 1   0.3125135621055999  0.06251021870996736  0.09389753309157911
4 2   0.3750021194024208 2.939714844805897e-07 0.000791099554893216
132 2   0.3750029101853985  0.06250452963429971  0.04710494746114322
260 1   0.3750113862875102 5.936433622000801e-06  0.09389922436305712
68 2   0.4375004188424207  0.06250079233874904 0.0007879248702841093
196 2   0.4375008546488141 1.037941067286264e-06  0.04710757264424898
324 1   0.4375057153560438  0.06251198650036846  0.09389494833202677
5 2   0.4999973609605252 -1.176751731099372e-06 0.0007913280377068251
133 2   0.4999983780122574  0.06250237013170723  0.04710672081897471
261 1   0.4999999519283936 5.328244345890416e-06  0.09390003804566097
9 2 1.869939969729951e-06   0.1250040129551339 0.0008017792211358254
201 2  0.06250788069549311   0.1250063593677147  0.04711463803518646
548 1   0.3750049696110153   0.4999818157288658   0.1878114323934551
73 2   0.0625011274818212   0.1875028914222377 0.0007978879435420232
137 2 1.436478383596427e-06   0.1875062438960635  0.04711714020235583
329 1  0.06250461803830173   0.1875130388885109  0.09390171301577672
10 2   0.1250034459740298   0.1250000443770132 0.0007981021706303601
266 1   0.1250099342498111   0.1250130905149292  0.09390191302298172
202 2    0.187509237119726   0.1250068588059462  0.04711078260648374
138 2   0.1250074880128621   0.1875061035500814  0.04710848731935371
74 2   0.1875010392587042   0.1875026927042864 0.0007899577445059843
330 1   0.1875126236039817    0.187512705563912  0.09389744438703683
11 2   0.2500003926430936   0.1249999701708104 0.0007878280829296303
267 1    0.250014026838306   0.1250125400611695  0.09389707656392829
203 2    0.312506161186842   0.1250045571202975  0.04710530751303063
139 2   0.2500048759068934    0.187506730640324  0.04710122658815545
75 2   0.3124997136522488   0.1874994604035284 0.0007830469409531655
331 1   0.3125108639118226   0.1875128621364475  0.09389291301095598
12 2   0.3750022998735162    0.124998644989096 0.0007848316298980984
268 1   0.3750103184225474   0.1250144165875299  0.09389324205443225
204 2   0.4375022343525355   0.1250072543003771  0.04710020347292172
140 2   0.3750017882823125   0.1875065848729847  0.04709750689070887
76 2   0.4374976609981456   0.1875028661228431 0.0007809037746530793
332 1   0.4375034493030798    0.187516260965101  0.09389018969563637
13 2   0.5000001857003546   0.1249985306873439  0.00078644725337893
269 1   0.4999994490131023   0.1250161484579336  0.09389285393950964
141 2   0.4999987272039643   0.1875060715358286  0.04709933014331905
17 2 1.750229756471984e-06   0.2500048587420631 0.0007944685000772974
209 2  0.06250375015143098    0.250008535509558  0.04711073031443391
549 1   0.4999799131815567   0.4999868261570541   0.1878138165124584
81 2  0.06250275553154834   0.3125022916442661 0.0007897473903934326
145 2 2.499624696077554e-07   0.3125037909468049  0.04711114515624455
337 1  0.06250557835099024   0.3125091730986201   0.0938994490607509
18 2   0.1250003192240925   0.2500041094993247 0.0007877140952269926
274 1   0.1250097354825019    0.250010464371351  0.09389819947559247
210 2   0.1875078037362819   0.2500087474684221  0.04710401135703477
146 2     0.12500854690496   0.3125040817126226  0.04710297215419137
82 2    0.187499499736271    0.312499857328007 0.0007835490730032696
338 1   0.1875135604873547   0.3125069414049413  0.09389469746630515
19 2   0.2500025032577696   0.2500016293616993 0.0007814507575288481
275 1   0.2500130880320253   0.2500103850163983  0.09389291616971819
211 2   0.3125064322772222   0.2500040361467331   0.0470968335297698
147 2   0.2500077855834446   0.3125054549988706  0.04709471219240315
83 2   0.3125026021994106   0.3125011251575994 0.0007759322747542775
339 1    0.312509488992591    0.312506871762773  0.09388944385598703
20 2   0.3750027692822787   0.2500006848948866 0.000774758404959913
276 1   0.3750068871110089   0.2500116881040012  0.09389009011441195
212 2   0.4374993769820434   0.2500051928590224  0.04709255921777317
148 2   0.3750031662530544   0.3125023474863947  0.04709191858608264
84 2   0.4375002357441333   0.3124994139158755 0.0007732997769316434
340 1    0.437499830915484   0.3125099149517481   0.0938872346514838
21 2   0.4999986919559746   0.2500026572395221 0.0007751298520222992
277 1   0.4999963135551412   0.2500163381132591  0.09388778163976594
149 2   0.4999953511131344   0.3125069290045935  0.04709157940273653
541 1   0.4999863052447028   0.3750148384973629   0.1878079680413362
217 2  0.06250352092799016   0.3750048248855719  0.04710507714185828
413 1   0.4999881877727608   0.4375022842468929   0.1408454945648582
89 2  0.06250243986384359   0.4374979319060114 0.0007891606758920833
153 2 4.568047625581868e-06   0.4375015797726031  0.04711056496015603
345 1  0.06250752441422071   0.4374990236475617  0.09389981563173611
33 2 -1.750556112871134e-06   0.4999995273627831 0.0007919716019197589
225 2  0.06250468458085999   0.4999973999540875  0.04710626216534675
604 1   0.4374929989474912    0.437496616281838   0.1878097884506697
26 2   0.1250003030259023   0.3750004594955739 0.0007844776068391921
282 1   0.1250111891471608   0.3750028757766755   0.0938957734070972
218 2   0.1875049308507309   0.3750014769303317   0.0470980183037196
154 2    0.125003912292067   0.4375021553000418  0.04710214737985701
90 2   0.1874988204092724   0.4375015716210211 0.000780821579268615
346 1   0.1875139816343938   0.4374977844500264  0.09389212792926084
34 2   0.1250007316199338   0.4999971365484796 0.0007843771422214262
290 1   0.1250140808711095   0.4999936878117188  0.09389569177427187
226 2   0.1875081382284614    0.499998749749351  0.04709639542551337
27 2   0.2500018954491885   0.3749997338567428 0.0007777297384705238
283 1   0.2500119157032901   0.3750017884935054  0.09389085988766556
219 2   0.3125023613872085   0.3750030212410435  0.04709193706022304
155 2   0.2500045823468364   0.4374983306143396  0.04709360537214785
91 2    0.312501493995586   0.4375020893493801 0.0007717966314532398
347 1   0.3125093078764445   0.4374976763753198  0.09388760155280734
35 2   0.2500021809935988   0.4999991785857387 0.0007755648127100224
291 1    0.250013564681751   0.4999921556715713   0.0938902648271729
227 2   0.3125047557645241   0.4999992118010098  0.04709270929014484
28 2   0.3750014823826819   0.3749986333730103 0.0007705461181245804
284 1   0.3750040603187867   0.3750032558186275  0.09388632940185901
220 2   0.4374988437011091   0.3750008206897127  0.04708722581383628
156 2   0.3750023689880392   0.4374986589951705  0.04708729817569449
92 2   0.4374983382556816   0.4375016878690677 0.0007676004994048708
348 1   0.4374973686333311    0.437499269393912  0.09388497361609033
29 2   0.4999970682383738    0.375000263701778 0.0007723260227099277
285 1   0.4999924779067399   0.3750071916597798  0.09388598936962293
157 2   0.4999956568389157   0.4374994040908393  0.04708907585089959
36 2   0.3749982376263203   0.5000013646975084 0.0007717846396875391
292 1   0.3750047400202219   0.4999935075837404    0.093885839513143
228 2    0.437499225993965   0.4999974621576375  0.04708795209641124
293 1   0.4999925028079344   0.4999943442315266  0.09388590689583463
37 2   0.4999975908308467   0.5000009976831723 0.0007692557043350406
412 1    0.375005129056553   0.4374963340794586   0.1408462685373784
449 1  0.06250127935749229 5.91199071239663e-06   0.1408402751066714
476 1   0.4374981734550119   0.3750071518772961   0.1408456175842541
577 1  0.06249148228851379  0.06250871166484542   0.1877734966131185
386 1   0.1250115065503093  0.06251246040497059   0.1408437826635146
514 1   0.1250090573607273 3.95872733280048e-06   0.1877723360403707
450 1   0.1875201747235602 7.646889044563617e-06   0.1408433310145283
578 1   0.1875220018061562   0.0625136140447327   0.1877840406184622
387 1   0.2500225402244896  0.06251514571482666   0.1408449072537448
515 1   0.2500313741938637 1.339163506812143e-05   0.1877830023499293
451 1   0.3125241628230628 1.087117266100752e-05   0.1408455628898187
579 1   0.3125331268809091  0.06252429793344132   0.1877908760745676
388 1   0.3750198389207294  0.06251983952219184    0.140844453451544
516 1   0.3750322953539796 2.332320555470549e-05   0.1877898232369671
452 1    0.437514250155481 1.348552053945183e-05   0.1408464090745814
580 1   0.4375246747661739  0.06253463781706627   0.1877942645646663
389 1   0.5000052868620581  0.06252360929304153   0.1408445088432976
517 1   0.5000128020001606 2.893109289678191e-05   0.1877936142320867
457 1  0.06250093872667367   0.1250156290421651   0.1408452541559521
540 1     0.37500620890222   0.3749995933703208   0.1878075741024619
483 1   0.3125146959833773   0.4999880582621365   0.1408471155088332
585 1  0.06249537973873021   0.1875131554942349   0.1877849768535278
522 1   0.1250094308915956   0.1250118080673958   0.1877852043718408
458 1   0.1875178457255477   0.1250152802824387   0.1408457231394526
394 1   0.1250114766082303   0.1875142951695686   0.1408468674903028
586 1   0.1875194387711643   0.1875093786945675   0.1877944658904606
523 1   0.2500272924310048   0.1250167636968654   0.1877930926822849
459 1   0.3125207521538277   0.1250188032931261   0.1408447247714609
395 1    0.250018999732227    0.187514577211919   0.1408462997157745
587 1   0.3125248904198571   0.1875152827496521   0.1877988586804682
524 1   0.3750281260651176   0.1250279317026205   0.1877961616853333
460 1   0.4375122363036233   0.1250248999005445   0.1408437938561694
396 1   0.3750147978443726   0.1875198212280709   0.1408449923795616
588 1   0.4375174610281501   0.1875292766476205   0.1877999923591602
525 1   0.5000114234210056   0.1250395757794978    0.187798104728481
397 1   0.5000015654809842   0.1875275192664314   0.1408436631707834
465 1   0.0625033594438167   0.2500135618782829   0.1408473755307529
547 1   0.2500263957990759   0.4999822592986854   0.1878067069762597
603 1    0.312514694436027   0.4374884440660259   0.1878083762682415
593 1  0.06250343735825445   0.3125080339171574   0.1877899325155193
530 1     0.12501263215966   0.2500070780208344    0.187793249192598
466 1   0.1875173355818598   0.2500101627750003   0.1408472576831775
402 1   0.1250145635465236   0.3125070739507217   0.1408475114031679
594 1   0.1875205708963889   0.3124996753864442    0.187799947229481
531 1   0.2500210330657388   0.2500043843966321   0.1878008322564946
467 1   0.3125157251045493   0.2500121618899473   0.1408466244775557
403 1   0.2500177872980767   0.3125051366398599   0.1408478324247983
595 1   0.3125164158618905     0.31250093567279   0.1878050802497578
532 1    0.375016867370003   0.2500144053425274   0.1878027535087979
468 1   0.4375058314365746   0.2500198578264347   0.1408451104148659
404 1   0.3750082853743292   0.3125098212536393   0.1408463249819114
596 1    0.437503358105977   0.3125155177654368    0.187805413891192
533 1   0.5000008337007551   0.2500312921443676   0.1878032929267285
405 1     0.49999397276602   0.3125187146012841   0.1408447978243237
473 1  0.06250770719319125   0.3750041203635028    0.140847940308547
411 1   0.2500193936131965   0.4374939812426315      0.1408474681149
475 1   0.3125130534645073   0.3750006404924832   0.1408470594276489
601 1  0.06251171791142877   0.4374978857087214   0.1877898960652293
481 1  0.06251166809989395   0.4999919580418856   0.1408463686904242
545 1 -8.180311951454336e-06   0.4999923627816548   0.1877855024696714
538 1   0.1250201985739831   0.3749991876519836   0.1877959520175466
474 1   0.1875198194198159   0.3750005759218583   0.1408477318272497
410 1   0.1250195924223216   0.4374964596230826   0.1408471910737251
602 1   0.1875273107294896   0.4374906304451234    0.187801916335096
546 1   0.1250271745613785   0.4999878272594641   0.1877952477550885
482 1   0.1875241735908576   0.4999890483635885   0.1408472503551821
539 1   0.2500208102944733   0.3749933752903846   0.1878050165237154
994 1   0.1875244283809914   0.4999287372327128   0.3286775889221055
705 1  0.06247421967729525 -8.855300204183499e-06   0.2346858988111138
1115 1    0.312469775744489   0.4372880917064634   0.3757433286501816
833 1  0.06243856958304321  0.06247064315862229   0.2816047696317552
642 1   0.1249982732551102  0.06249848927050373   0.2347047035633117
1037 1   0.4999891251534849   0.1251525841725002   0.3757089544785295
706 1   0.1875206063419858 2.536841560938055e-06   0.2347036605282413
834 1   0.1875096613892463  0.06248391999040252   0.2816413973061555
643 1   0.2500367504900771  0.06251786341682335   0.2347286096620764
771 1   0.2500388992270132 1.994688055534013e-06   0.2816372209061351
707 1   0.3125455951716523 2.552084058944439e-05   0.2347231972904922
835 1   0.3125575790423749  0.06252962731404416   0.2816820938354744
644 1   0.3750455553294381  0.06254147642165431   0.2347430129018194
772 1   0.3750591351963395 3.87860983214853e-05   0.2816672577821092
708 1   0.4375372333822563 4.256081488955127e-05   0.2347363078470883
836 1   0.4375507763708264  0.06256829797452861   0.2817075975945446
645 1   0.5000219144763005  0.06255721635816142   0.2347523504092156
773 1   0.5000294848177749 5.636161368113634e-05   0.2816869834708859
713 1   0.0624743025273688   0.1250002622234158   0.2347039273805336
1114 1   0.1875026052740592   0.4373754227858117    0.375629292234522
922 1   0.1249961424283801   0.4374626016536526   0.3286252406008905
841 1  0.06244382647411433   0.1874815991933145   0.2816284398015298
778 1   0.1249728984344956   0.1249725343599155   0.2816382606722809
714 1   0.1875196692887347   0.1250042987715578   0.2347311395103873
650 1   0.1250023347549901   0.1874987399915818   0.2347281779175387
842 1   0.1875067998608558   0.1874771098960676   0.2816850179064563
779 1   0.2500357684053677   0.1250005435030096   0.2816889932934741
715 1   0.3125401501139881   0.1250227008101663   0.2347473013722604
651 1   0.2500266700373882   0.1875011903173698    0.234748908719236
843 1   0.3125383983987106    0.187502662448995   0.2817150112645708
780 1   0.3750553742332283   0.1250461017412938   0.2817158854573955
716 1   0.4375342638384851   0.1250458516546262   0.2347555353166985
652 1   0.3750322021966315   0.1875212995263613    0.234756459258497
844 1    0.437532430961748   0.1875486241310141   0.2817307267739509
781 1   0.5000212872023344   0.1250817395746363   0.2817357087212806
653 1    0.500011875565831   0.1875479332241035   0.2347637690721281
721 1  0.06248704383946743   0.2500040318388953   0.2347200997669151
986 1   0.1875065768198778   0.3749322495524566   0.3286614569633988
1050 1   0.1249101325433132   0.3749325396719979   0.3755219334100016
849 1  0.06247147219884305   0.3124952654284667   0.2816481642204414
786 1    0.124985844859161   0.2499780397235951   0.2816702118020831
722 1   0.1875162557867156    0.249991311684516   0.2347466780320635
658 1   0.1250117161206482   0.3124948057527093   0.2347387243944553
850 1   0.1875091331251441   0.3124659990259606   0.2817013374024901
787 1   0.2500170073777679   0.2499694425198568   0.2817105152838247
723 1   0.3125223716342742   0.2499964681094987   0.2347578694567112
659 1   0.2500178482025653   0.3124836774788511   0.2347579955029251
851 1   0.3125087714517704   0.3124625054019567    0.281721942759351
788 1   0.3750220799235431   0.2500000071641953   0.2817237840850269
724 1   0.4375149513800837   0.2500235534449436   0.2347627769290775
660 1   0.3750102198576179   0.3124976315541975   0.2347644174192011
852 1    0.437491223926705   0.3125061129274604   0.2817351706095158
789 1   0.4999910233085175   0.2500522217764184    0.281743276203134
661 1   0.4999879011131145   0.3125288901260807   0.2347707905051052
729 1  0.06250349835683028   0.3750017512080052    0.234725759001639
993 1  0.06246589743822942   0.4999873064657972   0.3285797645836842
665 1 -1.744515440431989e-05   0.4375021902422748   0.2347152646007241
857 1  0.06249631067476227   0.4374950744099095   0.2816571117200755
737 1  0.06251322682387378   0.4999900166763798   0.2347258114955155
801 1 -2.545853690423248e-05   0.4999961087930175    0.281637215689155
794 1    0.125007996865964   0.3749818930424726   0.2816830931571011
730 1   0.1875223340247306   0.3749846441657874   0.2347534865166349
666 1   0.1250248974000522    0.437489817149297   0.2347420909491439
858 1   0.1875250792208411   0.4374637501010175   0.2817119208375702
802 1   0.1250237135526412   0.4999753922054287   0.2816884552056473
738 1   0.1875331954156791   0.4999766377233654   0.2347571402271978
795 1   0.2500123695232419   0.3749532266521545   0.2817208941195689
731 1   0.3125111201416196   0.3749806329627509   0.2347664261677093
667 1   0.2500223037620642   0.4374760202303259   0.2347652093461056
859 1     0.31250017332206   0.4374455635455525   0.2817392658618111
803 1   0.2500234717871885   0.4999458900709521   0.2817363312048398
739 1   0.3125142325264115   0.4999671332449616   0.2347760392239659
796 1   0.3749877164584973   0.3749650061113092   0.2817354520547503
732 1   0.4374902504508008   0.3750018526084721   0.2347720964629219
668 1   0.3749973491738113   0.4374792815261854    0.234775074663718
860 1   0.4374572284011979   0.4374653661170466    0.281758016501595
797 1   0.4999477583050257   0.3750110914885528   0.2817570124663408
669 1   0.4999663374015191   0.4374976829141751   0.2347832141561408
804 1   0.3749793427496024   0.4999348072165844   0.2817620172529376
740 1    0.437480554106696   0.4999699914209071   0.2347858756102393
805 1   0.4999267801665431   0.4999455361470352   0.2817863828121858
996 1   0.4373989365867349   0.4998743436957384   0.3287855273235922
909 1   0.4999885349666178   0.1876164642588017   0.3287473793032193
1060 1    0.374888176973753   0.4997485035169426   0.3758049461127105
1089 1  0.06230534213958959  0.06236341954578124   0.3754050713952835
898 1   0.1249252227193306  0.06242270255048485   0.3285219280406455
1059 1   0.2500094787872997   0.4998222636075411    0.375707710280569
923 1   0.2500127137520388   0.4374020577485946   0.3287032106292027
1090 1   0.1874202708741159  0.06235412862967497   0.3754381343920125
899 1   0.2500327302405445  0.06246682177056138   0.3285838728546839
987 1   0.3124875148859033   0.3749031648735828   0.3287050163114753
1091 1    0.312565846631535  0.06244534036776599   0.3755260440985708
900 1   0.3750745633528675  0.06254775808622172   0.3286429388587891
1051 1   0.2500075456624609   0.3748404340397481   0.3756810834079329
1092 1   0.4375586736753066  0.06254162291686476   0.3755952399631088
1061 1   0.4997356229603626   0.4997808411113663   0.3758818810069769
969 1  0.06237503380273744    0.124931480601109    0.328515961735392
925 1   0.4998641190464056   0.4374450920409205   0.3287863392245478
924 1    0.374944941798352   0.4373941595788594    0.328738436135848
1097 1  0.06227576752002888   0.1873923180927344   0.3754161351071242
1034 1    0.124818864930993   0.1248412288372941    0.375421473945497
970 1   0.1874737458853936   0.1249348271999914   0.3285809412567343
906 1   0.1249186485402272   0.1874320484747841   0.3285633973223574
1098 1   0.1873898212516454   0.1873637377579609   0.3755044014545068
1035 1   0.2499897273292195   0.1248981026832482   0.3755281785430087
971 1   0.3125605306777453   0.1250190415804681   0.3286623759001355
907 1   0.2500194262756889   0.1874649858087883   0.3286608726667283
1099 1   0.3125391318355359   0.1875039113607619   0.3756729058611917
1036 1    0.375070941347005   0.1250714329961167   0.3756499754703383
972 1   0.4375502446442758   0.1251006959553221   0.3287093682781076
908 1   0.3750479783036964   0.1875448849720206   0.3287084542273904
1100 1   0.4375097045500569   0.1876611120981709   0.3757621536691481
988 1   0.4374275401426744   0.3749570219624731   0.3287358251899316
1052 1   0.3749200192324449    0.374851464915228   0.3757445275421505
977 1  0.06239097245592981    0.249964732240304   0.3285414508084158
1116 1   0.4373122997216587   0.4373253416561435   0.3758084773838554
1105 1  0.06231256745158251   0.3124598269363623    0.375444662424851
1042 1   0.1248242340689952   0.2498939752197128   0.3754650143853536
978 1   0.1874812195171758   0.2499392599327947   0.3286399855413307
914 1   0.1249578708977473   0.3124577630601731   0.3286046532372585
1106 1   0.1874506753158093   0.3123912956076666   0.3755932853220829
1043 1   0.2499882244501186   0.2499122218419723   0.3756503396379298
979 1   0.3125205536575587   0.2499636144177327   0.3286947754993355
915 1   0.2500040816879813   0.3124212529849892   0.3286812790457022
1107 1   0.3124944352319032   0.3123860637062693   0.3757096347414346
917 1   0.4999216245786601   0.3125418876437372   0.3287504721535184
1044 1    0.375007258177099   0.2500274175966814    0.375741543593908
980 1   0.4374978922939748   0.2500431077856252   0.3287239900902171
916 1   0.3749855385807481   0.3124551528765823   0.3287066725596678
1108 1   0.4374010638049152   0.3124995721232068   0.3757658805263248
1053 1    0.499770402030222   0.3749720632732323   0.3758230161848178
985 1  0.06243872173403139   0.3749889756940002   0.3285677625651099
995 1    0.312486569232833   0.4998773300446719   0.3287417805177416
1113 1  0.06237726733363914   0.4374768757792535   0.3754815698646692
1045 1   0.4998847510769892   0.2501555488132277   0.3758117816399566
901 1    0.500027495057071  0.06258774428715363   0.3286779061824276
1058 1   0.1249357647323033   0.4999501205513226   0.3755328986022663
1154 1   0.1247349298450686  0.06223796774854942    0.422297609901699
1225 1  0.06216386734268344   0.1247795002954176    0.422301864993775
1290 1   0.1244866500006612    0.124562244138701   0.4691567048283904
1345 1  0.06209093711560922  0.06217924804896423   0.4692436974337622
1226 1   0.1872572864251474   0.1247101881691697   0.4223107073633393
1291 1   0.2497049211275746   0.1245330913763209   0.4691809932242914
1346 1   0.1871785317599521  0.06208530646531794   0.4691872276681188
1155 1   0.2499379708263926  0.06227111915370034   0.4223492526702516
1227 1    0.312518118585169   0.1248650456701234   0.4224723094546189
1292 1   0.3750261654804854    0.124819764473248   0.4694175443279046
1347 1   0.3124809406071993  0.06221095868694666   0.4692828330272032
1156 1   0.3750816146055202  0.06240870326659288   0.4224676811342881
1508 1   0.4367675485586691   0.4996254306920828   0.5170458995491959
1228 1   0.4375210145155069   0.1250827789057079   0.4226091729851202
1348 1   0.4375164619521454   0.0624050759372691   0.4694732707070166
1162 1   0.1246419816269799   0.1872548768476889   0.4222912164605764
1298 1   0.1244447877454003   0.2496984093018917    0.469167911723571
1353 1  0.06204346568639849   0.1872275897064825   0.4692249632187802
1299 1   0.2495923588188845   0.2496132641636441   0.4693491161284308
1354 1   0.1869439978008718   0.1870217378146359   0.4691338299190887
1163 1   0.2498657483130225    0.187287830639337   0.4224563477642916
1355 1   0.3123348928534759   0.1871927908994132   0.4694173785727827
1500 1   0.4368545776023178   0.3747121529376612   0.5184136604185168
1164 1   0.3750189513098274   0.1876291648496846   0.4227357322115441
1356 1   0.4374118086155002    0.187641936838188   0.4697254658226415
1233 1  0.06217119887683692   0.2498765226320658   0.4223235399541734
1170 1   0.1246816867615965   0.3123706212629361   0.4223376309910283
1306 1   0.1245592064137467   0.3748382379760106   0.4692680932543868
1361 1  0.06217641749005263   0.3123686655180816    0.469325522307788
1234 1   0.1872337796162771    0.249780706922993   0.4223926047852304
1362 1   0.1869549647521908   0.3122126455549578    0.469217647628898
1235 1   0.3124920949734002   0.2499701947278025   0.4227622910738807
1171 1   0.2499662803346601    0.312320590934698    0.422680164476035
1363 1   0.3124815217549675   0.3123564402463632   0.4700404819553987
1436 1   0.3746059147401437   0.4363505366529226   0.5180268490914959
1437 1   0.4991145659589497   0.4366467186462862   0.5180916327546559
1300 1   0.3748886453787785   0.2502096806290298   0.4700546239054361
1236 1   0.4373934886567958   0.2502304407835398   0.4229433312428097
1172 1   0.3749388236239632   0.3124315620296141    0.422879398673121
1364 1   0.4371753136842529   0.3126795294549842   0.4704386405480098
1241 1  0.06224819233883402   0.3749497956396193   0.4223819815493732
1178 1   0.1247862412995798   0.4374015002318866   0.4223949486756423
1369 1  0.06229163274500342   0.4374544966621454   0.4693850370240085
1572 1    0.373330250437288   0.5005976274623114   0.5634495102956282
1242 1   0.1874039955003972   0.3748135063742055   0.4225274242078577
1370 1   0.1871094567735186   0.4372629532550373   0.4692878153908082
1507 1   0.3118604888117831   0.4999307916217745   0.5164148456388749
1307 1   0.2499784757870586   0.3746287502547646   0.4697331200296342
1243 1   0.3124933793120867   0.3747203100472353   0.4228114845165712
1179 1   0.2500153322053825   0.4371977681322403   0.4227286479314469
1371 1   0.3124816731763438   0.4368857492091556   0.4700821313117371
1315 1    0.249739294221227   0.4998090991615063   0.4694507379875145
1251 1   0.3124292836735916   0.4996226483298481   0.4228208186770988
1181 1   0.4995316961539282   0.4372504954283429    0.423019774957659
1309 1   0.4992497993738562   0.3749213910757054    0.470322307599301
1308 1    0.374900539588455   0.3746366174540325   0.4702030971746962
1244 1   0.4372215930617718    0.374841983233521   0.4229347242174923
1180 1   0.3748416921282416    0.437119339806977   0.4229129247898534
1372 1   0.4369811783664757   0.4369057733717585   0.4704429356525293
1316 1   0.3746565176995298   0.4993227572844222   0.4700682678158116
1317 1   0.4993875732165119   0.4994017859121177    0.470175189168805
1252 1   0.4371618088524679   0.4995451581903456   0.4229947310785625
1410 1   0.1244234823927837  0.06195033663249561   0.5161463677315167
1481 1  0.06193625478166399   0.1245554647960731   0.5161884869564703
1546 1   0.1240487081486839    0.124125788293905    0.562938580405355
1601 1  0.06185639531535771  0.06194638215370873   0.5630966380224628
1411 1   0.2496843286283306  0.06200375148965956   0.5161206257929285
1482 1   0.1867456898077637    0.124232735973566    0.515995996564891
1547 1   0.2490044980118664   0.1238830107259455   0.5627559957626602
1602 1   0.1867955074369648  0.06176085161968818   0.5629541035170912
1412 1   0.3749864737643748  0.06234814155981031   0.5163813723104389
1483 1   0.3122053899060876    0.124373319089568   0.5160799049408537
1548 1   0.3747967065196747   0.1247921297471874   0.5631815683657747
1603 1   0.3122997635955164  0.06234448740595214   0.5631136480314373
1484 1   0.4374342350012778   0.1248934298483903   0.5164909802922146
1604 1   0.4374445043548413  0.06246000431453745   0.5632704670052756
1418 1   0.1242304198384611   0.1869127649033771   0.5160534144420944
1489 1  0.06212482830850655   0.2497252516369839   0.5162789524052481
1554 1   0.1244050856716505   0.2494009250024657   0.5630403521032261
1609 1  0.06206395087156909   0.1870504676960092   0.5631122642851393
1419 1   0.2491445409179415   0.1866025011388864   0.5159341188171859
1490 1   0.1865400568834608   0.2493370681574275   0.5159662343722232
1555 1    0.248206073410447   0.2484399448368493   0.5625625791414798
1610 1   0.1861315252426594   0.1862657254709867   0.5627250675982914
1420 1   0.3747544075649326   0.1870634916719874   0.5164088940075263
1491 1    0.311810059089366   0.2492907764912356   0.5163370878114459
1556 1   0.3735353840412024   0.2486265430415301   0.5634226621041329
1611 1   0.3112470588898261   0.1859643704548344   0.5626449609975637
1492 1   0.4371997946274638   0.2500041061041303   0.5171206008961735
1612 1   0.4372786602057329   0.1873864918842106   0.5634504760100564
1617 1  0.06233278662529175   0.3122854024467898   0.5631955414932505
1562 1    0.124789201056441   0.3747550846811512    0.563193998350917
1497 1  0.06233137051879028   0.3748896668751534    0.516391244975133
1426 1   0.1244820274179492   0.3121618296685478   0.5162320645752778
1498 1   0.1866931511122924   0.3746508185846425   0.5161506922775454
1427 1   0.2489605301047245   0.3119559940374018   0.5160828797824448
1563 1   0.2484069328532799   0.3744165021577449    0.562936838997235
1618 1   0.1866876791016856   0.3117531785934302   0.5630166720742079
1619 1   0.3100463226458783   0.3114108804134937    0.562610314060432
1564 1   0.3773984373537839   0.3741899673137843   0.5689952650939839
1499 1   0.3128734582881534   0.3744198207330059   0.5176210442785332
1428 1   0.3747392608944975   0.3127642038229607   0.5180309913343472