ITEM: TIMESTEP
1
ITEM: NUMBER OF ATOMS
1793
ITEM: BOX BOUNDS pp pp pp
0.0000000000000000e+00 2.8920000000000002e+01
0.0000000000000000e+00 2.8920000000000002e+01
0.0000000000000000e+00 3.8497500000000002e+01
ITEM: ATOMS id type xs ys zs
1 2 1.157995434843962e-06 1.132398783130956e-06 0.0008072853179729443
65 2  0.06250191515478298  0.06250184224700379 0.0008032467102909747
129 2 3.137015650936659e-06  0.06250575035854632  0.04712065383236723
193 2  0.06250583414513131 3.15953324375183e-06  0.04712064065935338
257 1   0.9999969370449605 1.610951987673014e-05  0.09385891127191033
321 1  0.06250946167918829  0.06251535207410576  0.09386079317604945
2 2   0.1250028380141173 7.785141317973003e-07 0.0008025602295795095
130 2   0.1250073471576041  0.06250552709541207  0.04711624827715466
258 1   0.1250161078691375 1.553716532590742e-05  0.09386087552730796
66 2   0.1875028112656198  0.06250112738891708 0.0007967203548030865
194 2   0.1875079541078057 2.927807667653139e-06  0.04711562800627851
322 1   0.1875228762634986  0.06251978447738608  0.09386437146237386
3 2   0.2500028310285435 3.682163494787556e-07 0.0007961330353305885
131 2   0.2500070108064929  0.06250505478588851  0.04711042960348395
259 1   0.2500228282510987 1.741307089175136e-05  0.09386416315702716
67 2   0.3125020368802655  0.06250035622773743 0.0007906954390479445
195 2   0.3125054087553182 2.685390920734593e-06  0.04711088289815655
323 1   0.3125198021064297  0.06252573066002357  0.09386768139227254
514 1   0.1249960532572356 2.839959648807154e-05   0.1876716612071612
132 2    0.375002812790258   0.0625046871104441  0.04710659193660677
260 1    0.375013972707252 2.048671983342587e-05  0.09386645916162797
513 1   0.9999672267299723 3.488115559581988e-05   0.1876651780447363
68 2   0.4374999505972116  0.06250005084758566 0.0007883268031275757
133 2   0.4999971049182187  0.06250474554108033  0.04710659304558201
196 2   0.4375000515429402 2.581205083273847e-06  0.04710907628601875
261 1   0.4999957216063735 2.331119207611079e-05  0.09386701853141653
324 1   0.4375034803312797  0.06253017163065457  0.09386934057713799
6 2   0.6249971825071343 2.810713422841009e-07 0.0007961404565419041
69 2   0.5624979622537039  0.06250041926204149 0.0007906829708449502
134 2    0.624992912566063  0.06250503289265834  0.04711039830104072
197 2   0.5624945137979827 2.59785403804966e-06   0.0471108780818392
262 1   0.6249777851418969 2.41210990363859e-05  0.09386572727467611
325 1   0.5624834373061545  0.06253070648708027  0.09386883913314081
7 2   0.7499971715815721 8.332944862431238e-07 0.0008025662022440002
70 2   0.6874972824109759  0.06250112375006238 0.0007967021894867197
135 2   0.7499927267689308  0.06250544948717442  0.04711620527597607
198 2   0.6874920843005099 2.871392889449456e-06  0.04711564832058954
263 1   0.7499699227526549 2.22782632298175e-05  0.09386282272937639
326 1   0.6874701573183786   0.0625266831457791  0.09386614477996783
8 2   0.8749988030747946 1.18306913439079e-06 0.0008073474872798455
71 2   0.8124981561873033  0.06250186528435643 0.0008032515728794707
136 2   0.8749969029992459  0.06250578184848424  0.04712063860815234
199 2   0.8124941593305481 3.10182091524999e-06  0.04712059062434679
264 1   0.8749774620591192 1.889323058262404e-05   0.0938597684236735
327 1   0.8124713542261368  0.06252019142933327  0.09386228866493325
72 2   0.9374999535394063  0.06250217099256633 0.0008061591459626462
200 2    0.937500013727451 3.159151862071218e-06  0.04712279426407421
328 1   0.9374875635661941  0.06251540539540675  0.09385983529988136
9 2 8.342231802064559e-07   0.1250027458535084 0.0008025355209487138
201 2  0.06250549977330545   0.1250072765458871  0.04711618544669408
265 1 4.015246373553001e-07    0.125012155746039  0.09386180208686171
73 2  0.06250108671909775   0.1875027118618601 0.000796746430272887
137 2  2.8941806699882e-06   0.1875079204056875  0.04711558620122849
329 1  0.06251295648620812   0.1875115471034931  0.09386637109840604
10 2   0.1250020060930875   0.1250020340530262 0.0007968426468548189
266 1    0.125019757775066   0.1250171879185028  0.09386540139842268
202 2   0.1875074497232602   0.1250067712742537  0.04710985440529822
138 2   0.1250068041090836   0.1875074767449527  0.04710987448811522
74 2   0.1875018782888578   0.1875018740748844 0.0007890465096934823
330 1   0.1875246361886602   0.1875206011166733  0.09387179916071643
11 2    0.250002208401234   0.1250011141153269 0.0007895353195315186
267 1   0.2500237186192184   0.1250255427656268  0.09386986354806269
203 2   0.3125051626378201   0.1250062853128418  0.04710416315295327
139 2   0.2500065527985061   0.1875069700001366  0.04710265448471379
75 2   0.3125014814948227   0.1875010818356229 0.0007822055221535816
331 1   0.3125179978632522   0.1875301764105306  0.09387630995775834
12 2    0.375000955534307   0.1250004810209586 0.0007848195447110685
268 1    0.375011191133751   0.1250327251557505  0.09387280822363679
13 2   0.4999990636687089   0.1250004785651857 0.0007848485675937414
204 2   0.4374999820947428   0.1250060465499547  0.04710197293810151
269 1    0.499990608469349   0.1250349523013332  0.09387328637488661
140 2   0.3750026431534874   0.1875065898946394  0.04709810971460269
76 2   0.4374999976865226   0.1875007053389608 0.0007795959775413484
141 2   0.4999973355011856   0.1875065780001451  0.04709817230645068
332 1   0.4374989136394281   0.1875351751935049  0.09387809473288776
14 2    0.624997740999786   0.1250010747514021 0.0007895144679110795
205 2   0.5624948282403147    0.125006333729284  0.04710412615294933
270 1   0.6249730475284204    0.125030601419026  0.09387090835335152
77 2   0.5624984841796073   0.1875010275479572 0.0007821461956047254
142 2   0.6249934708358303   0.1875068905634555  0.04710261404833772
333 1   0.5624787190551945   0.1875324019986967    0.093876567876699
15 2   0.7499979724646555    0.125002023481744 0.0007968813262491244
206 2     0.68749250283166   0.1250067834430882  0.04710982582081573
271 1    0.749967613662648   0.1250218223371235  0.09386638735561438
78 2   0.6874981408439017   0.1875018044795836 0.0007890372356150727
143 2   0.7499931905050853   0.1875074989414121   0.0471098026314684
334 1    0.687467214709935    0.187523034351297  0.09387184662190061
16 2   0.8749992581391448    0.125002784123812 0.0008025512108753162
207 2   0.8124945432958245   0.1250072782316287  0.04711622151899582
272 1   0.8749783945105402   0.1250139953663135  0.09386232102625514
79 2   0.8124989670014018   0.1875027058071266 0.0007967590672833951
144 2   0.8749970938823528   0.1875079156738057  0.04711565402707106
335 1   0.8124708249108343   0.1875127892706145  0.09386616135813042
208 2   0.9375000091035376   0.1250075233127143  0.04711906396132854
80 2   0.9375000067549043   0.1875031050268332 0.0008001679628008302
336 1    0.937489686322069   0.1875080631577118  0.09386358927024271
17 2 3.742347868085892e-07   0.2500028805090797 0.0007960946142492952
209 2  0.06250511005455939   0.2500070646766157  0.04711035336340156
273 1 2.742905647081068e-06   0.2500051505833506  0.09386709621247481
81 2  0.06250037156883848   0.3125020501981411 0.0007907014356628967
145 2 2.697318653409752e-06   0.3125054394608668  0.04711089361676897
337 1  0.06251368278681751    0.312505088728396  0.09387237602162346
18 2   0.1250010642325028   0.2500022616834048 0.0007895349201494739
274 1    0.125021406490651   0.2500129993453223  0.09387267143290932
210 2   0.1875068855469024   0.2500065746325014  0.04710263318241054
146 2   0.1250062973449148    0.312505131119578  0.04710413733767255
82 2   0.1875009991491667   0.3125015271589241 0.0007822164909137215
338 1   0.1875233365939564   0.3125146581457852  0.09387924172188392
19 2   0.2500014993804988   0.2500014269552343 0.0007812352676252168
275 1   0.2500225120665477   0.2500234616401168  0.09387864518647898
211 2   0.3125047426995565   0.2500060717616734  0.04709599112732464
147 2   0.2500061414525952   0.3125046904103965  0.04709596871499534
83 2   0.3125010798817864   0.3125009954049945 0.0007746951622146447
339 1   0.3125147715612916   0.3125231523383346  0.09388446177645574
20 2    0.375000658477593   0.2500010174488588 0.000775968370780377
276 1   0.3750074628346899   0.2500309210347553  0.09388211095626017
21 2   0.4999993138500833   0.2500010029687966 0.0007760106205732057
212 2   0.4374999739098987   0.2500059531371761  0.04709344845654038
277 1   0.4999867159333095   0.2500307675394977  0.09388196849901591
148 2   0.3750024645905418   0.3125045483760669  0.04709096087227579
84 2    0.437500014191522   0.3125008470735678 0.0007719316460563344
149 2   0.4999975041681037   0.3125045513536165  0.04709099479463247
340 1   0.4374960071927811   0.3125253899115479  0.09388609046056216
22 2   0.6249985649338392   0.2500014295069284 0.0007812461885626992
213 2   0.5624952675864291   0.2500060454152805  0.04709594964009788
278 1   0.6249707011396208   0.2500226447189735  0.09387791351955235
85 2   0.5624989327504606   0.3125010093983415 0.0007746980419569998
150 2   0.6249938941788559    0.312504769520183  0.04709598082892411
341 1   0.5624776995282467   0.3125195676661173   0.0938835270564239
23 2   0.7499989280041385   0.2500022325380509 0.0007895393676568148
214 2   0.6874931067484137   0.2500064796078695  0.04710261699912128
279 1   0.7499667056131525   0.2500115409494599  0.09387124255702929
86 2   0.6874989488811925   0.3125014600816118 0.0007822108411301163
151 2   0.7499937268396508   0.3125051253159045  0.04710414101233704
342 1   0.6874672181282413   0.3125094025863616  0.09387701335107711
24 2   0.8749996675163342   0.2500028611360401 0.0007960947408623909
215 2   0.8124949062320154   0.2500070302923516  0.04711038159355341
280 1   0.8749790349726514   0.2500043416965168  0.09386619439974909
87 2   0.8124996423851285   0.3125019874582345 0.0007906665411070853
152 2   0.8749973035170832   0.3125054780564125  0.04711091677000688
343 1   0.8124709554491819    0.312501179943716  0.09386985994594271
216 2   0.9375000203209011   0.2500073049081275  0.04711400007797665
88 2    0.937500011846279   0.3125022451000851 0.0007946058968853379
344 1   0.9374905814060112   0.3124995942275157  0.09386786183560877
25 2 7.770110843294068e-08   0.3750012487298209 0.0007918937515188635
217 2  0.06250476505337144   0.3750028135826529  0.04710663111598238
281 1 2.316155884442933e-06   0.3749986448756408  0.09387134184394234
89 2  0.06250011074883308   0.4374999522695747 0.0007883591744832759
153 2 2.583691222501801e-06   0.4374999460845476  0.04710909217135507
345 1  0.06251101083296517   0.4374997968593142  0.09387575522889248
33 2 1.442611553099975e-08   0.4999988337413354 0.0007919046606806192
225 2  0.06250474507591174   0.4999972084995483  0.04710659721373826
289 1 -6.156430344230416e-07   0.4999963703843476  0.09387268667475962
26 2   0.1250004279942068   0.3750009426276011 0.0007848229859042772
282 1   0.1250194690117805   0.3750061465053205  0.09387816274279526
218 2   0.1875065501393875   0.3750026775814428  0.04709817257000784
154 2   0.1250060547543177   0.4375000268101306  0.04710201836844136
90 2   0.1875007287239149   0.4375000000040578 0.0007795235732256466
346 1   0.1875197942943484   0.4375057437774301  0.09388319089961865
34 2    0.125000513003376   0.4999990545641886 0.0007848101711623873
290 1   0.1250155043367943   0.5000003138367853  0.09387993244874188
226 2   0.1875065267166882   0.4999973886511949  0.04709814225054891
27 2   0.2500009843729606   0.3750006689969379 0.0007759765185139899
283 1   0.2500193206482813   0.3750139626830916  0.09388477842876647
219 2   0.3125045412004644    0.375002413742282  0.04709097301436165
155 2   0.2500058946940178   0.4374999747349538  0.04709345152861639
91 2   0.3125008615276073   0.4374999731086657 0.0007719370167126074
347 1   0.3125126286492951   0.4375084904858383  0.09388845406247787
35 2   0.2500009544071679   0.4999992816979402 0.0007760104622491309
291 1   0.2500171001958403   0.5000013606450917  0.09388656870769256
227 2   0.3125045420985711    0.499997552828622  0.04709097454978172
28 2   0.3750005537250916   0.3750005885136757 0.0007705244136454977
284 1   0.3750051333138782   0.3750172905320951  0.09388832565419158
29 2   0.4999995066511274   0.3750005589797394 0.0007704745412329899
220 2   0.4374999546511106   0.3750024500020161  0.04708839632528892
285 1   0.4999870166875808   0.3750136275817234  0.09388766461189291
156 2   0.3750023578145449   0.4375000179355845  0.04708838824417066
92 2   0.4375000038526908   0.4375000547572221 0.0007690103170225892
157 2   0.4999976194257448   0.4374999650078089  0.04708834983070995
348 1   0.4374970902576978   0.4375057740217563  0.09388984268240286
36 2   0.3750005199335725   0.4999994926849877 0.000770534432014893
292 1   0.3750065440272392   0.4999980768438088  0.09388993485828005
37 2   0.4999994899643884   0.4999994238567929 0.0007705067849442682
228 2   0.4374999840513371   0.4999975810970118  0.04708835794640758
293 1   0.4999909825751317   0.4999923914541789  0.09388891718307736
30 2   0.6249989814067131   0.3750007521616493  0.00077598989778647
221 2    0.562495515329823     0.37500241862024  0.04709099281080721
286 1   0.6249723513957386   0.3750054632598547  0.09388251477986366
93 2    0.562499187803652   0.4374999859405603 0.0007719148365079954
158 2   0.6249941109441962   0.4375000233820699  0.04709348278433503
349 1   0.5624808390363155   0.4374994568232586   0.0938866644410354
38 2   0.6249990099540926   0.4999993059049002 0.0007759760381779914
229 2   0.5624954472579112   0.4999975870751431  0.04709096390107991
294 1    0.624976047967469     0.49998854958676  0.09388333745226043
31 2   0.7499995735756995   0.3750010005073186 0.0007848114743887468
222 2   0.6874934602727243   0.3750026441849469  0.04709812427171992
287 1   0.7499675558246056   0.3749979968283284  0.09387445961992201
94 2   0.6874993291444612   0.4375000167691781  0.00077955551438893
159 2   0.7499939054161501   0.4375000261988459  0.04710199644970223
350 1   0.6874695663030482   0.4374938927888665  0.09387932677911005
39 2   0.7499995211304292    0.499998980979167 0.0007847863502121218
230 2    0.687493478248262   0.4999973876039412  0.04709813694797781
295 1   0.7499692227107313   0.4999886446500136  0.09387506226533353
32 2   0.8750000210009253   0.3750011718299959 0.0007918441968390822
223 2   0.8124952571451728   0.3750028172521688  0.04710661813836585
288 1   0.8749792063849033   0.3749953720065994  0.09386925104705489
95 2   0.8124998727353671   0.4374999640460894 0.0007883963931571218
160 2   0.8749974992138089   0.4375000501449325  0.04710908979599032
351 1   0.8124714893990874   0.4374920101378382  0.09387169920169081
40 2   0.8749999161585618   0.4999987771037729 0.0007918726851280652
231 2   0.8124952283210513   0.4999971856257907  0.04710665021147092
296 1    0.874978566854274   0.4999918620322277  0.09387005950559696
224 2   0.9374999951634558   0.3750029487169991  0.04711062694394316
96 2   0.9375000298773426   0.4375000475352071 0.0007923250514978142
352 1   0.9374896002216008   0.4374943861968745  0.09387029247830114
232 2   0.9375000104115481   0.4999971005903623  0.04711056038374999
385 1   0.9999876605186129   0.0625137082348929   0.1407591570651484
449 1  0.06249872620495176 2.458381159024689e-05   0.1407577924078741
488 1   0.9374711948926502    0.499993986012425   0.1407808843724469
577 1   0.0624848276130962  0.06250227464128344   0.1876713363899274
386 1   0.1250149128876359  0.06251545569149511   0.1407667966362202
608 1    0.937454919795807   0.4374755096018909    0.187690532979227
450 1   0.1875221401086002 2.426551356407236e-05   0.1407674702430906
578 1   0.1875110124612313  0.06250464885830696   0.1876886873375848
387 1   0.2500279664662909  0.06252399466766413   0.1407812183156689
515 1   0.2500200763900477 2.771877541894654e-05   0.1876900313412224
451 1   0.3125269650390773 2.836808321233152e-05   0.1407792219452576
579 1   0.3125218659886541  0.06251551694622999   0.1877129408838658
388 1   0.3750183100244558  0.06253389420681495   0.1407923885746288
516 1   0.3750233653097905 3.372313062361011e-05   0.1877081972614652
389 1   0.4999936277321393  0.06254001139232118   0.1407954794379269
452 1    0.437511243887076 3.417384375864487e-05   0.1407859297814728
517 1     0.50000490734587 4.20389493360903e-05    0.187715569999053
580 1   0.4375090772472113  0.06252799317443603   0.1877276271869081
390 1   0.6249688707958707  0.06253890085330101   0.1407895590583454
453 1   0.5624854428621224 3.857091121640175e-05   0.1407852506346427
518 1   0.6249777048531471 4.846619227454103e-05   0.1877094210066342
581 1   0.5624839078394103  0.06253559799594105   0.1877267153830775
391 1   0.7499569173889042  0.06253055535967653   0.1407768263408945
454 1   0.6874637126350293 3.900419733863593e-05   0.1407773168559373
519 1   0.7499564076579875 4.910849975694358e-05   0.1876932446875201
582 1   0.6874626035788456   0.0625332203739381   0.1877118694518559
392 1   0.8749639818136817  0.06251993991273734   0.1407637901933898
455 1   0.8124576319982493 3.502503034341114e-05   0.1407656207624789
520 1   0.8749515758621643 4.343219613432496e-05   0.1876748211076361
583 1   0.8124541861922668  0.06252215084212967   0.1876900239846387
456 1   0.9374716188402784 2.902111057412153e-05   0.1407570238701417
584 1   0.9374620013218705  0.06250933340919454   0.1876725058212246
457 1  0.06250425071609259   0.1250035895018869   0.1407677331428533
521 1   0.9999739154287298    0.124978916753158   0.1876743505935652
393 1    0.999991131531786   0.1874923872131231   0.1407697191301704
585 1  0.06248315669139393   0.1874638758333393   0.1876855531809488
522 1     0.12499815485833   0.1249820558661282   0.1876873935360802
458 1   0.1875251422097099   0.1250146750669659   0.1407838566919872
394 1   0.1250174309435801   0.1875029314280236   0.1407846122675813
586 1   0.1875052880274368   0.1874814223443373    0.187716551385416
523 1   0.2500162970658047   0.1249974652204104   0.1877169017853658
459 1   0.3125236187928688   0.1250291988188928   0.1408002304390517
395 1   0.2500255952310216   0.1875205841968698   0.1408057735178712
587 1   0.3125097099408239   0.1875052502599096   0.1877503811492066
524 1   0.3750112527030837    0.125015535313894   0.1877407587833411
460 1    0.437502140391775   0.1250394835609451   0.1408082479779358
525 1   0.4999895733143571   0.1250265123597491   0.1877469999851097
396 1   0.3750102785232945   0.1875358177642816   0.1408202040162471
397 1   0.4999842564045634   0.1875397451775971   0.1408220699476949
588 1    0.437493951417212   0.1875217896090899   0.1877670757540906
461 1   0.5624757546472609   0.1250396270983886   0.1408052540991618
526 1   0.6249690872075452   0.1250232813493414   0.1877351509334729
398 1   0.6249638699077423   0.1875292819872856   0.1408112041982703
589 1   0.5624754671109087   0.1875201580228863   0.1877611220529249
462 1   0.6874589054625779   0.1250288866244039   0.1407924907331975
527 1   0.7499593459542258   0.1250074683348384   0.1877108581284387
399 1   0.7499573209056803   0.1875107458089582   0.1407915677883808
590 1   0.6874662445283789   0.1875013882112343   0.1877369779154828
463 1   0.8124588504579611   0.1250135015507608   0.1407753579440294
528 1   0.8749603245712682   0.1249891902153622   0.1876854826069722
400 1   0.8749669303573974   0.1874955305169738   0.1407733051209527
591 1   0.8124635332217992   0.1874778094992099   0.1877048480132229
464 1   0.9374764041773522   0.1250030087284012   0.1407642065662332
592 1   0.9374667020299403   0.1874628557944502   0.1876818960654159
465 1  0.06250504883992541   0.2499918944695456   0.1407831149721541
529 1   0.9999700486092086   0.2499531652648918   0.1876851381909769
401 1   0.9999900874778033   0.3124843167728548   0.1407809832231275
593 1  0.06247251541508712   0.3124631139030833    0.187701579987093
530 1   0.1249895361202058   0.2499691244806088   0.1877107555064074
466 1   0.1875224373826027   0.2500096518532228   0.1408065035179229
402 1   0.1250134366120657   0.3124992366839237   0.1408021101379633
594 1   0.1874893202067416    0.312489051803605   0.1877441651316161
531 1    0.250002503340845   0.2499961724112172   0.1877521794076924
467 1   0.3125162927162803    0.250028484203787   0.1408277209172621
403 1   0.2500180526754089   0.3125185744082769   0.1408285003006224
595 1   0.3124925546452216   0.3125155792718314   0.1877860833655988
532 1   0.3749955827438045   0.2500189628593929   0.1877817707070245
468 1   0.4374937154305837    0.250037244899493   0.1408364342644254
533 1   0.4999810102612453   0.2500218866169019   0.1877860029222557
404 1   0.3750025016955667   0.3125310037548313    0.140845053214901
405 1   0.4999814624717366   0.3125277643356904   0.1408455872226771
596 1   0.4374847571933005   0.3125242572593098    0.187804202010978
469 1   0.5624716403128321   0.2500297401516156   0.1408301117199004
534 1   0.6249737643049297   0.2500028834349752   0.1877657787620396
406 1    0.624966788351775   0.3125109427809278   0.1408301920094198
597 1   0.5624806431120221   0.3125083962444936   0.1877929392813604
470 1   0.6874600498426544   0.2500106708310953   0.1408108378519091
535 1   0.7499708717103818   0.2499756558148123   0.1877302071752751
407 1   0.7499611632374092   0.3124917594598023   0.1408040375292144
598 1   0.6874803220406988    0.312480396013222    0.187758701056067
471 1   0.8124613812234077    0.249992151806986   0.1407868959572196
536 1   0.8749661300796273   0.2499561480267779   0.1876956956110227
408 1   0.8749679109661964   0.3124812193632174   0.1407816446247643
599 1   0.8124725580645711   0.3124581629418858   0.1877160966831315
472 1   0.9374779714096559   0.2499846301891588   0.1407738439758892
600 1   0.9374634322055784   0.3124513955771251   0.1876892680130602
473 1  0.06249970121597091   0.3749923649737546    0.140794347689101
537 1   0.9999594015505636    0.374965326428313   0.1876933818163151
409 1   0.9999842607692823   0.4374907396979397   0.1407862297937555
601 1  0.06245591656054204   0.4374924112997635   0.1877082950815737
480 1   0.9374761007372624   0.3749814452437326   0.1407807801889731
552 1   0.8749608132472432   0.4999910766628164   0.1876949602549949
538 1    0.124972371790116   0.3749868728935127   0.1877279153099696
474 1   0.1875141218597197   0.3750090815898128   0.1408221893221719
410 1   0.1250044180185838   0.4375034890854828   0.1408103678773466
602 1   0.1874706657556237   0.4375138503890956    0.187756286227062
487 1   0.8124643109157793   0.4999858159542125   0.1407923232117586
607 1   0.8124763565364027   0.4374694608732754   0.1877166036481913
539 1   0.2499839475195128   0.3750125808973687   0.1877772622173365
475 1   0.3125085596857341   0.3750221779209342    0.140845933181095
411 1   0.2500101180358342   0.4375141878883365   0.1408386604163574
603 1   0.3124818596896506   0.4375255926894049   0.1878014802777696
416 1   0.8749668009539529   0.4374826248980787   0.1407845256567495
544 1   0.8749658821056833   0.3749577502815252   0.1877000195751583
540 1   0.3749853637082132   0.3750248527389292   0.1878103921241158
476 1   0.4374918697428684   0.3750222330481687   0.1408546661292199
541 1   0.4999861300360876   0.3750134891795865   0.1878126265190533
412 1   0.3750010969971888   0.4375148026169413   0.1408556529308879
413 1   0.4999876631551508   0.4375042669144067   0.1408551673938345
604 1   0.4374896394081044    0.437516870734189    0.187819561951919
479 1   0.8124635270854071   0.3749811802918114   0.1407935440361151
484 1   0.4374988002648272   0.4999988613343846   0.1408562455939472
549 1   0.5000026585768181   0.5000009431825427   0.1878116584535637
477 1   0.5624764968692421   0.3750090449693286   0.1408459462251693
542 1    0.624989431621725   0.3749880157148822   0.1877856009884126
414 1   0.6249752081822655   0.4374906354863938   0.1408373658725998
605 1   0.5624969105812241   0.4374948514631573    0.187804935426676
485 1   0.5624863226724321   0.4999873364834194   0.1408464964520563
550 1   0.6250054609149258   0.4999853874836125   0.1877823397861025
478 1   0.6874662220830927   0.3749920105209871   0.1408221156518649
543 1   0.7499836738679833   0.3749660670812962   0.1877407162977204
415 1   0.7499655604221775   0.4374823431717879   0.1408079608344388
606 1   0.6874955662984815   0.4374760694827787    0.187764813167355
486 1   0.6874727328354288   0.4999826166046817   0.1408213620399949
551 1   0.7499903120108856   0.4999829048106355   0.1877351111660531
641 1   0.9999553948943759  0.06249187369241353   0.2345985382564105
989 1   0.5625664697840173   0.3749718444206568   0.3285475569719338
928 1    0.875021181136334   0.4374501873701402   0.3284892244355087
833 1  0.06244141840088117  0.06247080590538062   0.2815493463405043
642 1   0.1249731700630703   0.0624824413964867   0.2346036445226469
1119 1   0.8126312013387914   0.4374600108213114   0.3754421190494202
705 1  0.06245805644044046 3.66051117616119e-05   0.2345933993346647
834 1   0.1874548803441457  0.06245846288255626   0.2815594767546615
643 1   0.2499983512201621  0.06248375442366758   0.2346295715374759
968 1   0.9374272504001407 7.481880923126384e-05   0.3285424337873968
707 1    0.312513477934947 2.489067268037006e-05   0.2346331135579534
835 1   0.3124826443659179  0.06245999175165946   0.2815888038331997
644 1   0.3750106165292287  0.06249741430694154   0.2346593408776743
772 1   0.3750077180757292 1.809486464110371e-05   0.2815979087859045
645 1    0.500000753363769  0.06251470579110134   0.2346716308633361
708 1   0.4375185376446765 3.367024739847707e-05   0.2346539027294889
773 1   0.5000166015640179 3.406791421680265e-05   0.2816148770022138
836 1   0.4375009365817468  0.06248118652105127   0.2816176147124103
646 1   0.6249811613925603  0.06252464222648561   0.2346632240624573
709 1   0.5625011477917635 4.69064966473442e-05   0.2346567596893565
774 1   0.6249988613332071 5.497488720724993e-05    0.281611788260774
837 1   0.5624978232087811  0.06250483471716392   0.2816238740808628
647 1   0.7499640196157884  0.06252129125731536   0.2346412644503325
710 1   0.6874739499081689 5.695325061335322e-05   0.2346434043081912
775 1   0.7499676514709785 6.826748362682366e-05   0.2815940775681439
838 1   0.6874830246783168  0.06251616396070417     0.28161114104605
648 1    0.874953801682084  0.06250747840806471   0.2346153176179671
711 1   0.8124510124845536 5.783297140242838e-05   0.2346210357924318
706 1   0.1874874907090111 2.661714009538846e-05   0.2346074398519602
839 1   0.8124652506056117  0.06250921375704878   0.2815881008650811
776 1   0.8749408685076293 6.692794762408384e-05   0.2815697404578655
840 1   0.9374483964637298  0.06249053498798111   0.2815630856996797
713 1  0.06245976061769288   0.1249455112830379   0.2346008446569019
777 1   0.9999447988633032   0.1249201299663064   0.2815514785182955
649 1   0.9999529942051227   0.1874210012332529   0.2346018157682861
841 1  0.06241939356784923   0.1873767769404392   0.2815376148426736
778 1   0.1249330344508689   0.1249089643051778   0.2815469010327344
714 1   0.1874787288368194   0.1249495462195209   0.2346230052876469
650 1   0.1249568168548889   0.1874256467308218   0.2346141992364225
842 1   0.1874158215099111   0.1873849279698921   0.2815518634965798
779 1   0.2499515184987082   0.1249141068593282   0.2815718368429728
715 1   0.3124978048702696   0.1249689403307202   0.2346614009801347
651 1   0.2499781014712528    0.187450092777229   0.2346579448654347
843 1   0.3124463432362297   0.1874189602601173   0.2816005081767359
780 1   0.3749787771512822   0.1249411147504009   0.2816119577427945
716 1   0.4374968930177994   0.1249909427501013   0.2346854205389309
781 1   0.4999895522729467   0.1249685273422102    0.281631511923676
652 1    0.374987145328908   0.1874787549592556   0.2346960155002588
653 1   0.4999844860644703   0.1874931901756998   0.2347068834660483
844 1   0.4374715297206195   0.1874515282317263   0.2816349992699735
717 1   0.5624850244366461   0.1250022455150412    0.234684847147293
782 1   0.6249924741019118   0.1249776130462682   0.2816247703350194
654 1   0.6249846802001433   0.1874838262707882   0.2346906608116549
845 1   0.5624922552538622   0.1874605072773314   0.2816387572739064
718 1   0.6874760610730835   0.1249951162204182   0.2346641898503218
783 1   0.7499899328365894   0.1249650915618793   0.2816036405258462
655 1   0.7499847748175665   0.1874585364998092   0.2346580404042653
846 1   0.6875108388437653   0.1874412229184516   0.2816186964633232
719 1   0.8124679699447294    0.124975705697125   0.2346343938457579
784 1    0.874972412080717   0.1249415968304725   0.2815761664960784
656 1   0.8749706565537059   0.1874339882030122   0.2346228107208638
847 1   0.8125039378437205   0.1874120494299095   0.2815900648458179
720 1   0.9374585109736003   0.1249559529780466   0.2346077579315265
848 1   0.9374625202900502   0.1873881805983966   0.2815580845364272
721 1  0.06243920150712969   0.2499143234823387   0.2346058502859586
785 1    0.999924244635871   0.2498660012212135   0.2815361034586447
657 1   0.9999338044743048   0.3124171117484908   0.2346020396531623
849 1  0.06237068979441689   0.3123837100093978   0.2815201221223665
786 1   0.1248844591705042   0.2498742539322712   0.2815331852584947
722 1   0.1874527204980414   0.2499401326564703   0.2346472544983218
658 1   0.1249274272911353   0.3124398852567907   0.2346303153170576
850 1   0.1873607876555679   0.3124219969608395   0.2815587383877221
787 1   0.2499043675468324   0.2499132255074229   0.2815829991121215
723 1   0.3124695347492398   0.2499753049877712    0.234698882814278
659 1   0.2499446653144336   0.3124775868417754   0.2346894770704464
851 1   0.3123957132264467   0.3124705778614378   0.2816227817860476
788 1   0.3749399045291342   0.2499540742737816   0.2816339422736964
724 1   0.4374774492127564   0.2499961065192639   0.2347261294117606
789 1   0.4999797875993749   0.2499652973390163    0.281652022741552