# Lammps simulation

10000 atoms

2 atom types

0.000000 98.804504 xlo xhi
0.000000 98.804504 ylo yhi
-0.098805 0.098805 zlo zhi
0.000000 0.000000 0.000000 xy xz yz

Masses

1  1.0
2  1.0

Atoms

605 2 1.0333259462382931027 1.26221493733248602 0.0
8 1 1.0385769245431426544 0.17950954755442566357 0.0
5248 2 0.013796850714069008176 0.57329315505496647454 0.0
5099 1 1.6774000977700522785 0.38389822585380967146 0.0
4909 1 2.3120154445300480361 0.1779799299372248067 0.0
4807 2 2.3038266977069943309 1.2840888520421080976 0.0
9999 2 3.3407955209362314442 0.53503230718664251953 0.0
4905 2 4.5829986906510740141 0.52891459453453948392 0.0
5648 1 5.6024039105704366293 0.91783018490361667485 0.0
269 1 5.6336208953469331107 0.23545394849247672231 0.0
212 2 6.6645205767248398843 0.59083070355222377934 0.0
4805 1 7.7206745752777301561 0.25916848429910632756 0.0
56 1 7.7108133214792191623 0.93000342236782040928 0.0
107 2 8.7682738788726979351 0.60977175403959416045 0.0
4764 2 10.033412626589798933 0.64677188493353265919 0.0
203 1 11.066419252328650202 1.0396078638124113258 0.0
4604 1 11.110400280374999937 0.36910282556794882236 0.0
4713 2 12.136860823588468961 0.82714920907206213041 0.0
465 2 13.414478056824739483 0.96373932072014367733 0.0
101 1 14.529378900109414019 0.7814812006635111219 0.0
407 1 15.056917944861000436 1.2509242429435929456 0.0
16 1 14.863838596891918442 0.20837604890135680291 0.0
4823 2 15.87711941835981122 0.52065429514208183548 0.0
116 1 16.87070245228749954 0.97601502304382803388 0.0
4874 2 17.939059334534238843 0.7500860245057345832 0.0
76 2 19.193726748792151682 0.85830408224623633284 0.0
81 1 20.276422202883395585 0.55103057104295294355 0.0
275 1 20.908691459820314407 0.81177985291047161098 0.0
4877 1 21.568482776925783639 0.64030607259691230126 0.0
422 1 22.001600543638133445 0.12086419588480543097 0.0
4976 2 22.611811980779915388 1.0358244237314420122 0.0
69 1 23.286903435111874217 0.16525652916977962015 0.0
121 2 23.8948644294784458 1.0894896720573956639 0.0
473 2 24.961581118494898135 0.39722583846361625426 0.0
429 2 25.988175619384854542 1.1317148851767713236 0.0
4733 1 26.666675098032396107 0.24853528407763383901 0.0
4984 1 26.027555317678682911 0.04352279196545801726 0.0
4531 1 27.975206644100754971 0.26114942365497217924 0.0
26 2 27.258014569772150537 1.1638501931077180895 0.0
4535 1 27.323274655754509865 0.066538730109602206575 0.0
530 1 28.318190023666861777 0.83005953114954411642 0.0
4934 2 29.28847851818269632 1.3381731715775320168 0.0
33 2 29.111390441209707092 0.056546856723874078243 0.0
4291 1 30.106185814193906936 0.65305356441909201415 0.0
4731 1 30.37836537669375403 1.293474356357690036 0.0
278 1 30.233275213473763898 0.0045858727385693250078 0.0
130 2 31.190256390879788739 0.56958289825957497676 0.0
288 2 32.348810697804921688 0.96415690504471651678 0.0
4787 1 33.274775085334368896 0.3614387373230774636 0.0
4981 2 34.348544061470811073 0.60369284856355676094 0.0
142 1 35.380750383952083382 1.0316347758352162334 0.0
4875 1 35.443091774095073276 0.38555762734650761425 0.0
79 2 36.494455064236646535 0.82409854737009702319 0.0
4791 2 37.782831051281178247 0.91476577297149586077 0.0
346 2 38.921606104896980582 0.34739809072324678851 0.0
4946 1 39.446134526658774178 1.3233606386082219508 0.0
144 2 40.290224673451000115 0.50628696141675066933 0.0
545 1 41.397710059932464333 0.19336175996144952527 0.0
4940 2 41.593677573082267429 1.2855955498441142826 0.0
4895 2 42.490309864764171266 0.42106540107648771087 0.0
246 2 43.778164200733307609 0.45273642064617003467 0.0
5451 1 44.673450710228607363 1.1064330798400658917 0.0
197 2 45.018038153148637548 0.063512868923600862558 0.0
5004 1 45.358307652307225055 1.0885633692264109484 0.0
5154 2 46.234774789956198049 0.37543219933078875172 0.0
5751 1 47.342520887721057932 0.32578061779026035172 0.0
5352 2 47.021041751276861476 1.3813651284203298797 0.0
646 2 48.240389251566149653 0.95769972181008977685 0.0
608 1 0.99425693783268798143 2.3390240593290849702 0.0
12 1 0.53552729234600016106 2.8137724725805424164 0.0
9989 1 1.6440740783601550667 2.1600050750023864765 0.0
9850 2 2.6773320634945996233 2.523516061739861982 0.0
167 1 3.9699808150586011202 1.4416503256854680259 0.0
4765 1 3.3335136435268455379 1.6397398535420582011 0.0
201 2 3.9567860785111541588 2.5452258489407970643 0.0
263 1 5.3043850413641733255 1.5518999736620517904 0.0
5645 1 4.6164268333526852217 1.6286354338311626044 0.0
5196 1 4.9949719433480934683 2.1746824321230060484 0.0
6 1 5.9865059763799424175 1.4631513747006454906 0.0
560 2 6.0080585133270503206 2.5501420955354663356 0.0
354 2 7.0421198609970652171 1.8104218688735072007 0.0
251 2 8.3323895275315162934 1.8313914272883278223 0.0
408 1 7.6872342514747957765 2.7180632567805353972 0.0
604 1 9.3765943742010104955 1.5288456032066268797 0.0
559 2 9.3714034113248487756 2.6361359113157520895 0.0
4868 1 10.643438941087126182 1.5547164882518453854 0.0
756 1 10.005684942837858031 1.746208658360515642 0.0
119 2 10.63358563199840745 2.6469016036892001331 0.0
159 2 11.645633684739086888 1.9843337409599364207 0.0
277 1 12.603592690972334367 2.5017513651114442474 0.0
413 1 12.709905432739745379 1.8102771635573147169 0.0
315 2 13.699721246760910631 2.2658836356409817192 0.0
4973 1 14.409579413122115099 1.4370819436398285518 0.0
369 2 14.987249515289972734 2.3677337195641618983 0.0
265 2 16.091247049236972799 1.7578916649404732198 0.0
68 2 17.07615504690928887 2.6573130155245969775 0.0
4817 1 17.198943052525514474 1.568113716139522662 0.0
4873 1 17.831568100802748233 1.8521628619573839991 0.0
324 1 18.502307629538560008 1.7213812218534561005 0.0
325 1 19.132153725225233387 1.9988682045793026987 0.0
4726 1 19.5228340330181247 2.5877519730549471966 0.0
4966 2 18.397360056677889872 2.8263401646034416181 0.0
4878 2 20.165881961066418171 1.6297398443411359459 0.0
120 2 20.649223340266082971 2.7348332873201575133 0.0
14 2 21.51783830958640209 1.7389170322784535117 0.0
169 1 22.602699000294460774 2.1094859386920292721 0.0
270 1 23.247057159274227445 1.9634364660088567955 0.0
479 1 23.878286453717748827 2.195603089336749747 0.0
24 2 24.921157924200468159 1.840433540066026108 0.0
634 1 24.266629914290053449 2.7461669694618291437 0.0
84 1 25.944388264125436194 2.2353900603150149706 0.0
319 1 26.582068595494366292 2.0490802268597980706 0.0
474 1 27.203204592372099313 2.273222608624668073 0.0
228 2 28.231242806369944986 1.9221248609507859406 0.0
4816 1 27.59739990672402854 2.8131545816607808064 0.0
1019 2 29.30697973479583851 2.6131849286633745955 0.0
876 1 30.21993121956317907 1.949415089458454986 0.0
232 2 31.354592804752716262 1.8317879923519690966 0.0
4736 1 32.494609838863368623 2.0346929923633330084 0.0
4977 2 33.46723464800849257 1.5112121000973242069 0.0
4637 1 32.983733551794927052 2.5147925292325798985 0.0
30 2 34.669722882490319193 1.8565516668129586897 0.0
4935 2 35.886046065867716948 1.9807890769640763562 0.0
4982 2 37.123690940049883125 1.968255895461574978 0.0
4839 1 38.051728995107602316 2.5375231923245951116 0.0
4937 1 38.771207836514392397 1.4454573470054226103 0.0
4437 1 38.262886284152898497 1.9012560209203275274 0.0
92 2 39.233765243383402321 2.4561685520898626223 0.0
437 2 40.450837753729565804 1.760646047795233704 0.0
50 1 41.46215251732532181 2.4075147430740768684 0.0
494 1 42.139621786634116063 2.2265425837006267429 0.0
5303 2 43.012207651242896134 1.5573595845659009562 0.0
838 1 44.125159305330463155 1.5076744863457138823 0.0
5402 1 43.941069631323543376 2.1578441232545122475 0.0
286 2 45.04814910383943527 2.141260593748479657 0.0
5301 1 45.922298492038507334 1.4394379731350321894 0.0
48 2 46.288054621064233629 2.4687651478486727363 0.0
4942 1 47.384028532743272422 2.4223243262983311652 0.0
5266 1 47.923337443223118726 2.0168896049971647422 0.0
4896 1 48.59908619943648489 1.9970089839443485591 0.0
349 1 49.155383201156112705 2.3672295508052245694 0.0
351 2 0.53462026104662885295 3.8739184908485295722 0.0
156 2 1.6098358220594113366 3.2464681243864177418 0.0
812 1 2.6470235786783775644 3.6272560195035832287 0.0
4813 1 2.2348699114133063759 4.1632824021186696228 0.0
4308 1 3.2949763708132828732 3.4359018965581391569 0.0
4 1 3.9288435133769956664 3.6542627233753224303 0.0
453 2 4.9699242657374682608 3.2931545618662170227 0.0
611 1 5.6023427033713328882 4.1943913729090347431 0.0
174 1 6.0107523732141725503 3.6600983137791369693 0.0
4753 1 6.648832246802192536 3.4532281157178217335 0.0
59 1 7.0499787919754899335 2.9176094919473118949 0.0
151 1 8.3228054104423332404 2.9347546492642542226 0.0
216 2 7.691524482514955352 3.8285929275347805323 0.0
562 2 8.9761175091099278944 3.8312623605073872213 0.0
104 1 10.029747481837121725 3.5402601847604495688 0.0
506 1 10.689267809822736055 3.7274831902939591366 0.0
515 2 11.766071281317589836 3.3295488393613554834 0.0
60 2 13.159585288296012706 3.4492075155775112627 0.0
4929 1 14.258020794428798439 3.2054837315538833309 0.0
22 1 14.887268216094632578 3.4647788352530284328 0.0
225 1 15.990771693493986305 2.8496310513670755071 0.0
4772 1 15.538993068168364786 3.3427554305352429331 0.0
4862 2 16.524445019473663621 3.8187434640881572356 0.0
327 1 17.60651173946330772 3.6194652221141008219 0.0
20 2 18.591932393623249453 4.0874828527203215245 0.0
331 2 19.831424275698797288 3.707098828053610351 0.0
317 2 21.160645653521903853 3.8486364738376193095 0.0
318 2 21.929803654217923992 2.9260733323103029768 0.0
433 2 22.404549328758200488 4.0962895133169743289 0.0
381 2 23.199588280030255305 3.071543954470649318 0.0
518 1 24.256391614553074021 3.4244637842038354592 0.0
220 1 24.643984010884146585 3.9965156896803839537 0.0
73 2 25.3074638973303081 3.1210937448006461636 0.0
4979 2 26.556536280586747978 3.1658496077743487618 0.0
1213 1 25.903838723912624431 4.0596951615112635281 0.0
577 2 27.587087893955153817 3.9065494026258700266 0.0
390 1 28.241007424847730078 3.0012079851142372533 0.0
4926 1 28.636450981558120077 3.5235225578558519999 0.0
382 1 28.644580379010349702 4.1919048564278389435 0.0
624 2 29.680807023896726093 3.8022145767368269453 0.0
168 2 30.642790611955483371 2.959076913136047704 0.0
571 1 30.721822769830755107 4.0728414258255840608 0.0
83 2 31.928692373432383533 2.9479253844685824326 0.0
1064 1 31.334404312576545237 3.8412574878822951518 0.0
328 2 32.398246927569331888 4.1279477065054761553 0.0
28 1 32.994702306421842763 3.190904137780421479 0.0
374 2 33.649891021817538217 4.0728956325789456017 0.0
138 2 34.055282334417569245 2.903013152038033784 0.0
4644 1 34.960847262192068285 3.5653922184924509153 0.0
580 1 35.212264356603462545 2.9040304751902179525 0.0
131 2 36.364411338707157029 3.0942249525679481614 0.0
243 1 37.49847799847785268 2.9992742247817107959 0.0
179 2 37.146157579771376334 4.0634165019751602443 0.0
143 2 38.470308654574253637 3.5253082161782205439 0.0
348 1 39.575231543751769436 3.534291207739818752 0.0
236 2 40.491269064031115477 2.9699033170595803277 0.0
445 1 40.115430537583158355 3.9970688219012329156 0.0
342 1 41.985578248271771429 2.8697381027651349683 0.0
4591 1 41.500696449341411665 3.3055037148271151359 0.0
100 2 43.077851449107058102 2.8478308201385331699 0.0
293 2 42.377203742606283754 3.9468464786087156249 0.0
387 1 43.465270441305577265 3.8860738659142808338 0.0
548 2 44.322701322579355576 3.1968038413603663273 0.0
93 2 45.104185953087082339 4.2165378960739854364 0.0
5651 1 45.423934631402730133 3.1640100594247435595 0.0
498 1 45.974066485911876612 3.5351263362895650744 0.0
396 2 47.064782769074412272 3.4841772613638410938 0.0
443 1 47.952020709783639063 4.1265181086847420033 0.0
295 2 48.275823164473933957 3.0630658933995129622 0.0
290 1 48.617995789439120813 4.1049125440498510642 0.0
4709 1 0.45103246740109509405 4.9585139409789897869 0.0
4356 1 1.120498322327966978 4.7963050922076897464 0.0
309 1 1.589755894725685792 4.3370214902848776006 0.0
5496 2 2.2007405286811740908 5.2817813401717730315 0.0
4956 2 3.2624337185433325281 4.5433409015559442778 0.0
357 2 4.5456230585256731658 4.5651925422991368464 0.0
9997 1 5.6121019552667172903 4.8592334461176278637 0.0
561 2 6.666470146507895933 4.556287593903352473 0.0
162 1 7.7129443955617196238 4.9232703498273595599 0.0
860 1 7.3110480861088369409 5.4530087138087655063 0.0
409 1 8.3515229494006621991 4.7239317975117138815 0.0
410 1 8.9926867971930608547 4.9355115841087711104 0.0
202 1 11.084113780598162435 4.2625246959788212209 0.0
363 2 10.03698611937689833 4.6292769237658077941 0.0
268 1 10.720381700628276889 5.5202183108991613736 0.0
712 1 11.082795719126838918 4.95505472559104021 0.0
4914 2 12.108768656838128308 4.6053192371703772778 0.0
4810 1 12.836879740127400851 5.4600790865199044788 0.0
207 1 13.458584846884107833 5.1211063294945402546 0.0
713 1 13.159597996020355737 4.5376753969022258772 0.0
312 2 14.198015568001165931 4.2946862366380056386 0.0
507 2 14.52676844215054075 5.4884903313187374252 0.0
122 2 15.441466744609327222 4.457695387348546312 0.0
366 2 16.704631228099373175 5.0884618032215493955 0.0
565 1 15.678625854240237913 5.5358029308978062843 0.0
261 1 17.506484266122779303 4.2963847442023226364 0.0
4871 1 17.797510580355098142 4.903504177202506753 0.0
219 1 18.404524675430607772 5.1848876293213619348 0.0
221 2 19.472993713706106433 4.9515130275772740731 0.0
523 1 20.49627717662407278 4.6582701768158303324 0.0
4779 1 20.527414775801471336 5.3140659054690608798 0.0
379 2 21.593891679343389711 5.0186847931212872354 0.0
323 2 23.600482064616532085 4.2945368647386947814 0.0
970 1 22.730462364121240881 5.1849659026217054247 0.0
373 1 23.410963801698375875 5.3444169570523767376 0.0
139 1 25.26344712218273969 4.2573471391276767051 0.0
222 2 24.56658604003418489 5.1216468307593396858 0.0
180 1 26.542139756680956708 4.2677760999938580966 0.0
632 2 25.904607759486413698 5.1774871697232986989 0.0
276 1 26.973757893588423684 5.4725707981527200729 0.0
519 1 26.948232212184521472 4.801562605591366939 0.0
628 2 28.01345805673628675 5.1021253849866683439 0.0
4722 1 29.050908023893544652 4.7144453867992499596 0.0
332 2 30.109987435974431946 4.9842608426046126624 0.0
528 2 31.40186831967866965 4.9363228776967833511 0.0
135 1 32.46438676723312966 5.2185687888253111666 0.0
229 1 33.101814956713162985 5.0013250838515173058 0.0
475 1 33.736243676880320663 5.2530927000540570404 0.0
436 2 34.691166793678249292 4.6825006662793295931 0.0
392 2 35.862441943528921229 4.2403543821682916359 0.0
134 1 35.566902801183488236 5.3138489856885007256 0.0
193 2 36.647839026645144145 5.2818827226230560257 0.0
86 1 37.680815822765445944 5.0509891528159638341 0.0
4882 1 38.10506872250542898 4.5465329311630009457 0.0
788 1 38.326123979554708399 5.1750598427162657345 0.0
198 2 39.179516073359856421 4.5441895003468415482 0.0
435 2 40.217469905935892882 5.1317721886590792479 0.0
447 2 41.17082592920068862 4.344336601220693872 0.0
789 1 42.037495312622958465 5.0295937711798268666 0.0
296 2 43.148143949797344021 4.9579011285349015026 0.0
385 1 44.012142332796123867 4.2694364063145018306 0.0
347 1 44.248280165746820103 4.9051499824012205764 0.0
598 1 44.081842836443854594 5.556902762268337348 0.0
594 2 45.189810527493534664 5.48620804263292694 0.0
497 2 46.310105456383787725 4.5818200487389475484 0.0
492 1 47.416234704045741921 4.5312863164639747282 0.0
9721 1 47.243010698803644232 5.1764443088137737092 0.0
345 1 49.174145973965153189 4.4711483970526542109 0.0
5054 2 48.330973917156548225 5.1701405962383271131 0.0
5195 2 1.0701646375814060086 5.8599293580534252968 0.0
5650 2 0.42716579454568559537 6.8979425717730737944 0.0
5893 1 1.5179431523696975681 6.8416014449426008071 0.0
607 1 2.0387818424030328401 6.3885518213834648904 0.0
4952 1 2.7169982757747490609 6.3050819404375264554 0.0
4705 2 3.6785498510416037021 5.7135156929024057959 0.0
452 1 3.2577106305258234364 6.7316975594038783726 0.0
53 2 5.0118057677771732372 5.7631447139679901071 0.0
361 2 4.3644688412580059378 6.7815478087715366229 0.0
13 1 5.5561605581016406674 6.7905502338701042575 0.0
3 2 6.2517215164559596374 5.7587207215959050899 0.0
102 1 6.2677377593730128069 6.8354464749301406812 0.0
61 1 6.9123089489455376011 6.6582209224777750833 0.0
602 1 7.3016268319216770522 6.1192287266761296038 0.0
67 2 8.3619789163130295861 5.8242546740979097564 0.0
566 2 7.9646604396655673597 7.000676413578577062 0.0
4865 2 9.6693794773642949281 5.8267219901821345474 0.0
673 1 9.0283378262540274761 6.6904011922318415984 0.0
223 1 10.716816083009110372 6.2008522154218601585 0.0
217 1 11.109455180532508578 6.7560439423739122589 0.0
214 2 11.776175554375525323 5.8479773879355541055 0.0
616 1 11.730380072782526923 6.9920280286478417864 0.0
115 2 12.759704436847524534 6.6320820200681813716 0.0
355 1 13.434442080681900933 5.7724695983470173388 0.0
463 2 14.002199087717194459 6.6776929294551532479 0.0
71 2 15.219409242332226029 6.5331745404010748146 0.0
511 2 16.460677562565091847 6.3629244471962218554 0.0
218 2 17.690524812210188799 6.0266884088771801586 0.0
1013 1 18.760128225458281293 5.7600311690956917943 0.0
4715 1 18.782760135566412885 6.4185547005613949878 0.0
166 1 19.155418831129281898 7.0061052678006374705 0.0
613 2 19.834222890008835094 6.1537878587886130077 0.0
4866 1 20.89782375893348032 5.8635019123774290151 0.0
175 2 20.825272995958066247 6.9444555071950899716 0.0
226 2 21.941689552522692708 6.1957227451424401465 0.0
522 1 22.966954403362532133 5.8381442654355861777 0.0
520 2 22.948122567506189284 6.9596845152178490324 0.0
4918 2 24.003989795902594295 6.2543414484233368356 0.0
17 2 25.292264208858949104 6.272556571160263772 0.0
4867 1 26.650112134252143647 6.0605673140577938085 0.0
826 1 27.366400778548250372 6.0244232778770481218 0.0
926 1 28.065806361762092536 6.1922203272242688499 0.0
617 2 29.104280503124339674 5.8040399136403566516 0.0
427 1 28.513046991189117563 6.7243911122072264064 0.0
428 2 29.582209374475041841 7.0051595646450426358 0.0
581 1 30.783773757336902577 5.844156083925985179 0.0
82 1 30.166275608657194596 6.0848962381092661644 0.0
430 2 30.870295073692471277 6.9411928958675161994 0.0
676 2 31.836745505449730587 6.1101603017445942356 0.0
34 1 32.973392719890981084 5.6521373447569214221 0.0
75 1 33.597208631786905642 5.9206800267993928699 0.0
831 2 32.867503796573039665 6.7230183993020746769 0.0
533 2 34.676497695091505591 5.9667450599953548718 0.0
480 1 35.096226045659165038 7.0179872067638315869 0.0
4834 1 35.780715480594118105 5.948290867514913316 0.0
147 1 35.604143356380689056 6.5910394929173392597 0.0
285 2 36.703016232782573525 6.5610564395468875531 0.0
489 2 37.87833696678038109 6.1435364805444443448 0.0
281 2 39.15029426826306036 5.8833588505527529833 0.0
418 1 40.196386929000503585 6.2242977496797964321 0.0
5302 1 39.805447882308349961 6.7759740577006919438 0.0
94 1 42.305505507445246849 5.6548321143737556582 0.0
136 2 41.228069690983694784 5.8096256333652105397 0.0
39 2 42.056388145313533755 6.7387408720462875777 0.0
184 2 43.22704605962270108 6.2601013371042828481 0.0
597 2 44.458503000520089188 6.5914461732674887173 0.0
240 2 46.398245434870865722 5.8483446352215802122 0.0
9859 1 45.55411443584247877 6.5316628802312770574 0.0
5502 2 47.621733366472263072 6.2227699150031732245 0.0
541 1 48.73073534169508747 6.1931612488930332105 0.0
298 1 48.616434099247463507 6.8280151728736449002 0.0
5447 1 0.80972168096354191213 7.9312145210472992929 0.0
4757 1 1.325722689743042304 7.4964688369949694646 0.0
554 2 2.4120664790463375304 7.430552965786164421 0.0
5500 1 3.4709361038054962201 7.3856884314283846038 0.0
4863 1 3.93381579382526958 7.8493331475446206369 0.0
609 2 4.9829119575355527161 7.8093731732358682152 0.0
658 1 5.9489777425989478488 7.3987077267431518024 0.0
303 2 6.9706929682549070293 7.755753122814483369 0.0
1017 1 8.0143667804956173484 8.0960933611302134949 0.0
113 1 8.6377046511294093278 7.8735243448823624135 0.0
509 1 9.0194998711282377002 7.345716245028595992 0.0
316 1 9.3156505852731363859 7.9557995951428859271 0.0
467 2 10.072839857432521526 7.110775671708256418 0.0
158 2 11.082984413459000095 7.9023795825709983731 0.0
468 2 12.393050324590319633 7.880213696589941641 0.0
417 2 13.664836179731253196 7.8791294868844099497 0.0
809 1 14.691627595420580832 7.5138113649816631323 0.0
563 1 15.334493431558199106 7.6513865110947802961 0.0
671 1 15.919816243330769723 7.3507764734309306576 0.0
760 2 16.072552054832861756 8.4660108984355293416 0.0
774 2 16.959770994750179796 7.5575280974682206292 0.0
177 2 18.109379141429354121 7.2410608686034469983 0.0
1482 1 17.897136711674846765 8.296862346940933719 0.0
619 2 19.036571995568092319 8.1401227779440432641 0.0
19 1 19.76532445973810681 7.2708133905402974051 0.0
360 1 20.125849331368559803 7.8306846495908599692 0.0
271 2 21.1900333433516046 8.1157974969088666484 0.0
869 1 21.89019597043235521 7.2819411736205221786 0.0
725 1 22.262316794717726509 7.8403662378102119135 0.0
614 2 23.290944427000738415 8.2308442377211008534 0.0
152 1 23.967184652671924994 7.358333430375871842 0.0
477 1 24.608152355258127386 7.1615060820094704752 0.0
267 1 25.229453951566412684 7.3877089862861744507 0.0
464 2 24.572426592539404311 8.2753714706512813137 0.0
326 2 26.269845891354318468 7.0830541034435574588 0.0
525 2 25.847879786929365054 8.2989941255367103423 0.0
70 2 27.499414399891819016 7.1145253238647345739 0.0
781 1 26.89617016139079908 8.0060945541227184208 0.0
266 2 27.963195471569498807 8.3304340934080265413 0.0
588 1 28.567346719682891631 7.4108453134330991574 0.0
4835 1 28.996265864027012782 7.9550333340354697498 0.0
176 1 29.650201636350818291 8.1292276074284171017 0.0
664 1 30.268550420524665157 7.8549539425815142479 0.0
4585 1 31.937940499834837738 7.2351670748280261236 0.0
575 2 31.344029037569089979 8.119691968117255243 0.0
599 1 32.432288996809347736 7.7983521245951159528 0.0
4978 1 33.130186639031329321 7.7566763943758649802 0.0
343 1 32.885842113502590678 8.3687310918674278071 0.0
294 2 34.015210589066803948 7.0540603191185757836 0.0
182 1 34.91458063420166269 7.6731915131555075149 0.0
635 1 35.13333754917293561 8.3074501736260959461 0.0
576 2 34.037546038836914875 8.3593815087692977528 0.0
438 2 36.015662563763960691 7.6266326604631737851 0.0
442 1 37.63975410271119415 7.191379907675731431 0.0
644 1 37.110104536498617733 7.5881513653954426601 0.0
395 2 38.025505955505686018 8.2120598765487446968 0.0
183 2 38.753646110098422639 7.1331865242257341819 0.0
140 2 39.239105677519198423 8.370240265324680351 0.0
486 2 40.874558985756571872 7.0790210877794317312 0.0
336 1 39.831592181985641332 7.4501159722851841849 0.0
388 2 40.578036160918280473 8.291734760115446079 0.0
289 1 41.678708294801850798 7.8488176930617017391 0.0
42 1 42.375921960698619273 7.7896164927874158579 0.0
191 1 42.937306586698028354 7.3590838219006036169 0.0
495 1 43.606354835993961672 7.2974750950371678471 0.0
797 2 43.326804246082481598 8.373626033623027709 0.0
344 2 44.539415220173147247 7.8806511986380680668 0.0
5552 2 46.515534341551202147 7.0963192944323623124 0.0
4941 1 45.398585374960262584 7.1804291877494099694 0.0
5656 1 45.645006154475403548 7.8029367260254822725 0.0
5055 1 46.209275203402029319 8.163181957381684839 0.0
389 1 46.877244171360715086 8.137916300509438372 0.0
5951 2 47.73383144735630168 7.4577875081627293952 0.0
5260 2 48.995567142046802189 7.8347209241989936856 0.0
553 2 0.41829668131064323688 8.9534181181564829188 0.0
302 2 1.7583690346614540001 8.5018680382977205312 0.0
5797 2 1.4167244789391757465 9.6935037686889167219 0.0
5697 1 2.4442356213091573913 9.3676407451130216941 0.0
5748 2 3.0896629947951028683 8.495663258317506461 0.0
5191 2 3.4768329158755055808 9.7123747760808285534 0.0
4559 1 4.2136792960121027818 8.73942335362110434 0.0
5146 1 4.4980481922646156079 9.3810130395258202185 0.0
660 1 4.9002209669207603682 8.8672074661250981364 0.0
659 2 5.5548757673333408746 9.7336401158610783568 0.0
510 2 5.970193080868208213 8.5292492660357144274 0.0
310 1 6.6283528343570266017 9.4042907895960841103 0.0
205 1 7.0175292286054844482 8.8600844503656599471 0.0
5450 1 7.6489994704304704598 8.6447634984269576819 0.0
512 2 7.6962486476746692077 9.7355418214351114869 0.0
501 2 8.7315319683739982537 8.9424735252750160441 0.0
661 1 9.4491510255112274308 9.7780704087995768958 0.0
358 2 10.035797732162734519 8.7836074112924507062 0.0
5696 1 11.131964076895796367 9.018537499824974546 0.0
213 1 11.771285092340553646 8.7940866827624795121 0.0
163 1 12.433848430747504565 8.984634352090649756 0.0
411 1 13.078512346082794338 8.7903242773610141825 0.0
125 1 13.750289725495798976 8.9835931706187501788 0.0
662 2 13.128195987936310374 9.885726311356773266 0.0
817 1 14.183835593238173445 9.5257305543970023365 0.0
460 2 14.795273155480499483 8.6139264200717118314 0.0
508 2 15.282169057658256506 9.8305390800974610244 0.0
1127 1 16.35563871188232099 9.5362242979790057262 0.0
273 1 16.925483109365302425 9.1289457117056720392 0.0
1010 1 16.985473724015133001 9.7739037603918230701 0.0
230 1 17.283861529206276941 8.5777828197586654113 0.0
258 2 18.041453199613297187 9.38392406905054699 0.0
365 2 19.474075189163944088 9.4177884212271880671 0.0
313 1 20.105304018679579059 8.4998526156771951889 0.0
469 2 20.879827731485693931 9.2751918720744832569 0.0
364 2 22.204601201929691001 8.9492079480359763011 0.0
378 1 23.253141674072203671 9.3377192692559436438 0.0
66 1 23.905148433536691499 9.1570665317695087992 0.0
157 1 22.84583427854297355 9.8732687552216518156 0.0
568 1 24.548240527282100487 9.3746407482984501769 0.0
823 1 25.20221664354143698 9.1843164090842872582 0.0
126 1 25.854458449166926925 9.3964085068685285762 0.0
224 2 26.930455292361404673 9.0919757648294972086 0.0
828 1 27.99759264724203689 9.4253974285177477554 0.0
567 2 29.078746654868520949 9.0907614002120755714 0.0
734 2 30.422385367715520488 8.92865811024256395 0.0
478 1 31.177593156910802463 9.7674675631751597393 0.0
386 2 32.075090157155180748 9.095020575811794572 0.0
892 1 33.163431823096047424 9.0003610968841076811 0.0
375 1 33.699144840923622723 9.4355226488733237034 0.0
618 1 33.068325626717360421 9.6654757092460403811 0.0
128 2 34.802106347014138521 9.3713771754626868926 0.0
4917 1 35.685498717578752803 8.6795451847444393678 0.0
593 1 35.918501711433869161 9.2981082610337377758 0.0
380 2 36.797718824008825322 8.6355013551848127662 0.0
945 1 37.716521016489465978 9.234290018564372815 0.0
684 1 37.984854637650130371 9.8222515779169370376 0.0
127 1 38.469733321507511903 9.3054862810837573051 0.0
649 1 39.263967291694982009 9.4690646477301605444 0.0
592 1 39.920927758140379638 9.2163761688115659609 0.0
739 2 40.997578556358007518 9.474609316050500496 0.0
394 2 42.136546133075668763 8.8792525797150290146 0.0
434 1 43.098048052816352538 9.4472450275372104045 0.0
5904 1 43.768631278696680909 9.3809822876468267339 0.0
700 1 44.275036000329436092 8.9465233371369343729 0.0
188 2 45.369878645029245945 8.8768986362171293791 0.0
5756 2 46.596564962318318237 9.1990760347424771481 0.0
300 1 47.428929572670838866 8.5206885723869518756 0.0
850 2 47.792050033006532317 9.5909607849595719387 0.0
291 1 48.081043562626568644 8.485945696018836415 0.0
5308 2 48.965416160206110874 9.0663741091460501309 0.0
5747 2 0.33624404386808992573 10.274323634529581639 0.0
4254 1 1.3371250857030982928 10.778848192338662315 0.0
5750 2 2.4073567106326985154 10.471721063847164501 0.0
5498 1 3.4517294164228458087 10.819950503144085019 0.0
256 2 4.5100065226329393298 10.482969052402914656 0.0
706 1 5.5599698246470410368 10.837524205923275034 0.0
5849 1 6.6042761289827964788 10.066145983096372873 0.0
420 1 6.2048128364605021901 10.617867100101669564 0.0
54 2 7.2673411281984243715 10.916884723806012047 0.0
455 1 8.3958883750240769217 10.568434413342373546 0.0
5950 1 8.3219924961277325082 11.223503403777254306 0.0
6899 1 8.8006147230057720776 10.028145848405218388 0.0
657 2 9.4723939479860099766 10.902377780574838084 0.0
557 2 10.541122475248918988 9.9551148791935979432 0.0
569 1 10.61186850993530939 11.039084681831974777 0.0
761 1 11.247497260061882329 10.828915131933436911 0.0
314 2 11.838725732598264884 9.9026316343582081458 0.0
858 1 11.905949864599170596 11.000758605291276027 0.0
710 1 12.542876536458674508 10.79933136899085433 0.0
6550 1 13.199025970557601184 10.99488095592196224 0.0
321 2 14.237782085696252921 10.631625908261336022 0.0
764 1 15.298108038034369471 10.955734567147603187 0.0
910 2 16.360713364630424138 10.66217436888446457 0.0
4915 2 17.642349267043343275 10.611493147557945704 0.0
272 1 18.716352423904424995 10.24764513170894098 0.0
456 1 19.334141101358298442 10.525539183322058179 0.0
118 1 19.644458119369041071 11.135024830586361944 0.0
255 2 20.433811335786632668 10.392479647144156729 0.0
529 2 21.784721287279467106 10.151861351095828212 0.0
1028 1 22.405961055659030734 11.075889177125086249 0.0
929 1 22.828064931579710617 10.55648296758841731 0.0
1115 2 23.887153993759618231 10.265512652086220768 0.0
526 2 25.186381058474456296 10.275654674828839319 0.0
227 1 24.519914246806447267 11.157895433163371735 0.0
383 1 26.248944041748917044 9.9433864851496291948 0.0
472 2 26.248293900303277582 11.031030878866951994 0.0
578 2 27.313720861550759622 10.302950058587441617 0.0
1035 2 28.338630773707464527 11.09015775660948222 0.0
620 1 28.381006724746125514 9.9755005574713031535 0.0
692 1 29.005296066256676113 10.221864371277794348 0.0
674 2 29.598817151370987233 11.208596661886801371 0.0
928 2 30.074477387271102202 10.072796575920461848 0.0
72 1 30.677213634793130126 10.981947253580488066 0.0
669 1 31.105440495931794942 10.449441281752557487 0.0
133 2 32.194424527921711388 10.309788104108191575 0.0
237 1 33.30790507799226674 10.304075238900184175 0.0
785 1 33.938639466717198445 10.083693299294379742 0.0
487 1 33.994708248401622086 10.915260011433870702 0.0
693 1 34.506839511923047326 10.443184542999979669 0.0
540 2 35.629379652050403138 10.341366601655971991 0.0
640 1 36.49386468781036541 11.017536761279014712 0.0
484 2 36.833114596722317913 9.9119170044000703967 0.0
600 2 37.619861199280641983 10.847243810988246082 0.0
491 2 38.830640440103380229 10.48707570072231654 0.0
337 2 40.028932461911274743 10.303652436137118897 0.0