# Lammps Simulation

10000 atoms

2 atom types


0 54.1712 xlo xhi
0 54.1712 ylo yhi
0 54.1712 zlo zhi

Masses

1 91.22
2 63.55

Atoms

1 2 52.4908 21.3871 6.0389
2 2 20.3835 1.60981 24.3651
3 2 14.1787 18.1828 31.6993
4 2 2.65586 10.1494 43.0071
5 2 11.7837 16.5719 21.7032
6 2 27.1398 19.778 50.4198
7 2 27.255 39.9149 16.0823
8 2 31.8935 10.2823 38.0043
9 2 2.64562 21.5201 20.724
10 2 48.0009 33.3742 21.9434
11 2 44.887 33.7047 7.64583
12 2 20.662 14.4265 34.8659
13 2 2.28422 5.21724 41.6925
14 2 52.0215 11.0391 16.3453
15 2 50.7406 36.9259 47.6625
16 2 37.6374 28.4232 15.6637
17 2 13.4455 31.0422 14.8379
18 2 8.0759 46.2464 24.9224
19 2 32.6671 19.1579 45.7027
20 2 13.0817 48.435 45.0782
21 2 20.9779 4.94306 47.3827
22 2 6.02579 51.615 50.2274
23 2 34.7136 5.76788 28.6952
24 2 13.3821 26.5669 35.3617
25 2 45.7552 20.5959 20.0024
26 2 51.1746 51.0844 4.33754
27 2 3.64737 27.9372 1.51225
28 2 21.356 51.3054 35.0489
29 2 33.8931 25.8063 5.95509
30 2 9.1298 17.532 41.0082
31 2 37.0666 9.25612 7.25683
32 2 43.0369 49.3057 47.6987
33 2 34.9303 3.2973 51.9144
34 2 52.0795 30.8385 5.13194
35 2 46.505 6.03061 35.4266
36 2 16.13 17.3234 47.3429
37 2 42.2239 52.5074 15.9612
38 2 12.694 47.0772 49.0016
39 2 4.79673 39.5072 4.19278
40 2 41.2482 34.0822 29.8625
41 2 13.8767 29.343 28.8177
42 2 40.7104 30.7351 42.8387
43 2 19.7926 43.2734 22.1953
44 2 23.6489 39.3621 25.0313
45 2 40.5453 25.849 30.4696
46 2 22.4903 22.1443 11.6055
47 2 10.3928 24.4422 49.4359
48 2 18.7334 21.5028 27.0887
49 2 16.608 18.4269 45.2782
50 2 35.301 48.1748 19.4284
51 2 42.084 10.4916 42.706
52 2 27.4363 2.73329 21.5736
53 2 21.6435 26.4337 40.6999
54 2 28.0211 1.9992 31.1601
55 2 32.5253 0.539908 49.3299
56 2 27.838 19.5866 22.4821
57 2 16.6679 36.7654 32.3524
58 2 53.0868 49.8599 3.42173
59 2 37.4007 4.80359 24.8446
60 2 16.277 4.25646 30.5972
61 2 29.5149 4.53188 37.6798
62 2 42.2621 8.08819 1.44458
63 2 34.743 19.6542 28.2248
64 2 39.845 27.5024 8.27124
65 2 35.8917 28.0824 32.5037
66 2 42.3389 33.3846 37.2543
67 2 19.0788 25.0833 19.085
68 2 28.6486 3.46833 46.305
69 2 6.78624 27.4567 12.0385
70 2 31.476 51.7683 44.4296
71 2 52.8353 26.4849 15.0764
72 2 3.10539 29.6844 47.2022
73 2 22.9393 3.48281 5.7708
74 2 18.1418 12.1055 48.3006
75 2 15.6081 46.7708 25.9715
76 2 29.9637 27.3697 6.77747
77 2 42.7921 24.3407 28.6336
78 2 46.0114 17.8742 1.67871
79 2 35.9175 34.7093 46.6649
80 2 32.4373 25.9098 47.9152
81 2 53.4579 7.62156 50.5619
82 2 25.1604 7.71192 47.4354
83 2 33.8967 35.5478 13.3005
84 2 40.1338 52.5583 11.978
85 2 30.3214 53.5786 25.3256
86 2 9.30705 28.8866 17.6351
87 2 35.1036 7.76522 3.92653
88 2 2.30339 13.5107 47.2633
89 2 32.0285 21.4926 35.6613
90 2 46.8531 49.9346 29.7188
91 2 5.29785 12.6697 6.94973
92 2 33.0411 32.508 53.7031
93 2 53.9234 9.75867 4.31364
94 2 32.7978 17.3444 39.3873
95 2 50.8779 53.8422 11.8612
96 2 12.3922 9.86398 42.2156
97 2 15.1952 24.5159 23.0691
98 2 12.2931 39.923 26.8451
99 2 21.3222 26.0801 26.4328
100 2 15.1765 53.5102 30.665
101 2 11.2806 26.4105 2.41438
102 2 20.4729 35.7874 13.6904
103 2 19.2164 4.91537 0.872877
104 2 17.7505 5.78581 42.9383
105 2 2.72406 22.9958 37.4186
106 2 50.3743 49.897 17.0018
107 2 28.6804 26.8936 48.2034
108 2 50.1522 25.4004 22.0327
109 2 5.33223 32.4702 40.7417
110 2 21.4544 15.1283 48.7915
111 2 37.1424 10.2846 41.9699
112 2 26.4752 15.2044 43.4489
113 2 51.0598 32.8373 3.77201
114 2 6.91268 23.4257 37.2006
115 2 38.1228 13.9954 23.0386
116 2 29.6845 12.034 28.7587
117 2 2.86253 33.334 2.10446
118 2 42.7855 42.2026 53.2898
119 2 26.5 52.3775 22.9318
120 2 6.92573 18.7217 50.02
121 2 22.1246 50.4051 19.2693
122 2 49.6453 5.93565 53.0077
123 2 30.8948 18.5025 50.2834
124 2 36.2081 23.7388 22.4307
125 2 15.3406 22.319 6.32687
126 2 32.5149 42.4019 15.714
127 2 32.978 12.9331 18.5236
128 2 40.7059 3.24893 50.245
129 2 16.9973 37.5724 11.7391
130 2 40.4013 51.02 15.9663
131 2 4.52599 42.9585 38.9092
132 2 54.0338 39.9632 18.3567
133 2 18.0568 11.9361 25.6208
134 2 40.2039 46.1964 37.3591
135 2 44.1747 7.01788 37.1937
136 2 2.98348 7.22974 36.6849
137 2 33.0519 44.5123 20.2998
138 2 7.4019 44.5608 32.2793
139 2 53.1949 37.27 1.075
140 2 1.29984 37.3551 39.2533
141 2 25.7887 26.1637 18.5822
142 2 4.17468 9.81046 18.5232
143 2 18.7388 13.3995 53.2101
144 2 25.6322 8.38814 30.1247
145 2 15.8069 19.8052 30.7629
146 2 3.33608 47.6568 26.3929
147 2 24.7319 15.564 32.2821
148 2 51.7323 17.0153 24.9348
149 2 51.3894 3.88356 5.84133
150 2 0.807888 5.48532 28.7782
151 2 11.4916 42.8857 42.8669
152 2 42.7854 51.398 34.1082
153 2 10.1396 2.91574 35.3367
154 2 44.4413 20.8156 53.1769
155 2 26.8974 8.93386 45.8174
156 2 15.6027 34.5731 32.7419
157 2 2.37382 51.5667 53.6386
158 2 4.5511 43.4482 26.8035
159 2 51.9386 37.832 5.40292
160 2 16.4618 19.2834 11.4654
161 2 50.3421 7.30152 26.6818
162 2 47.9368 30.0301 52.4284
163 2 41.2307 53.0001 50.1886
164 2 23.3147 25.0526 23.1636
165 2 46.7275 25.6579 0.305606
166 2 0.594426 44.6332 2.92429
167 2 23.5693 48.4545 43.2404
168 2 30.8386 48.1604 18.0286
169 2 36.7582 47.2445 46.4306
170 2 33.0682 32.1757 24.7496
171 2 13.1202 21.6365 5.40724
172 2 19.2143 50.1739 48.4973
173 2 9.64778 12.2072 7.5766
174 2 14.7948 26.6292 50.4888
175 2 5.56945 48.4598 10.9099
176 2 27.5393 1.5128 47.8259
177 2 0.494185 23.6035 20.0573
178 2 52.1697 13.9105 36.711
179 2 20.6302 39.916 12.2648
180 2 16.1026 43.4857 20.029
181 2 13.4774 9.17211 8.57351
182 2 23.5434 52.0035 2.59659
183 2 18.2469 49.8535 12.4165
184 2 7.04989 19.9144 17.9108
185 2 25.9054 45.7399 35.3783
186 2 39.8771 6.17048 40.7511
187 2 48.5429 10.6174 20.7801
188 2 19.2664 18.7945 36.4662
189 2 28.3302 24.56 45.1596
190 2 48.6276 45.2399 1.76124
191 2 47.5475 21.4033 8.24697
192 2 32.6425 8.52606 31.8777
193 2 25.303 52.6113 12.9965
194 2 43.6002 40.9682 51.3416
195 2 50.7104 53.6976 22.8782
196 2 48.9081 51.497 48.2477
197 2 1.40427 29.8364 18.0102
198 2 0.911279 36.7834 9.70867
199 2 23.8952 38.9539 37.6646
200 2 30.3594 49.4098 15.8302
201 2 1.13926 44.0918 45.4988
202 2 26.7841 23.7088 27.4409
203 2 23.0847 49.9395 14.8087
204 2 50.6631 24.0716 30.4301
205 2 27.8492 47.3885 43.7551
206 2 42.6794 25.1534 53.6
207 2 7.66165 19.6681 11.6475
208 2 8.24903 26.7207 7.00336
209 2 42.9578 15.7393 20.8134
210 2 53.8623 45.5361 29.1871
211 2 10.2774 24.9115 39.6614
212 2 0.0679161 34.5603 34.1781
213 2 0.793158 51.9376 27.0429
214 2 38.069 30.3196 1.03977
215 2 32.459 36.5039 31.9046
216 2 52.4146 0.443202 3.36367
217 2 28.5751 39.4401 49.2992
218 2 12.0619 21.5727 23.878
219 2 34.8106 25.519 23.4344
220 2 2.79441 47.8349 1.81363
221 2 29.0647 19.7696 20.401
222 2 36.3346 26.8677 4.41343
223 2 4.59923 20.8867 18.89
224 2 8.82573 23.112 0.899811
225 2 14.8435 18.345 4.44099
226 2 22.238 46.0417 53.3979
227 2 41.6952 44.3518 36.6162
228 2 38.3941 52.6289 38.8703
229 2 43.5947 31.8845 32.8353
230 2 48.3047 33.9052 42.267
231 2 49.5493 38.0218 27.7595
232 2 40.2526 15.2857 30.3115
233 2 52.1132 28.8412 40.8672
234 2 18.4635 52.113 44.715
235 2 14.2009 15.3783 36.7653
236 2 15.2108 25.1539 35.5224
237 2 17.3716 22.9682 44.3719
238 2 4.02948 11.204 4.29524
239 2 31.6093 22.6139 37.9261
240 2 52.5686 49.9543 38.8223
241 2 49.984 12.226 17.1914
242 2 5.24778 31.3318 11.9387
243 2 20.9156 33.4886 37.3714
244 2 11.2342 17.7117 18.8745
245 2 21.1626 17.7751 52.4088
246 2 28.7458 32.4021 2.52147
247 2 17.5135 7.95618 31.2463
248 2 19.9929 44.6597 32.6463
249 2 32.1877 35.4837 17.8755
250 2 51.2062 31.653 7.43857
251 2 3.14256 15.7419 9.13722
252 2 41.6133 10.7722 45.2419
253 2 38.8709 13.866 12.4275
254 2 27.735 26.7852 20.2355
255 2 25.6534 39.439 23.6846
256 2 49.4748 35.8358 52.889
257 2 31.5399 1.00651 41.2885
258 2 7.7259 10.5445 44.3742
259 2 19.6086 42.5422 33.803
260 2 26.1067 21.597 16.7077
261 2 12.2702 30.3196 50.4313
262 2 42.8094 51.6532 18.2677
263 2 36.9484 23.9556 26.5193
264 2 47.0833 13.1544 26.0671
265 2 16.5612 17.9852 22.0447
266 2 11.7416 14.9427 51.6387
267 2 46.553 16.5251 53.8017
268 2 4.65116 42.9564 15.2835
269 2 28.1126 11.1203 30.5387
270 2 24.2805 19.9639 16.9241
271 2 40.9556 31.2324 15.1924
272 2 15.1561 48.9571 24.8544
273 2 50.0215 38.3749 39.9332
274 2 20.897 26.7664 49.4382
275 2 14.2665 46.7455 23.9983
276 2 41.919 48.2992 12.3903
277 2 48.2664 39.5892 53.9732
278 2 47.013 25.5521 31.586
279 2 18.869 3.21237 9.96625
280 2 26.037 22.8776 37.4776
281 2 46.3106 12.6628 38.3484
282 2 49.4747 34.8329 14.2189
283 2 46.6103 3.6865 39.2869
284 2 23.7127 24.3724 46.9646
285 2 26.5175 30.4612 50.3425
286 2 11.4945 51.0559 26.4403
287 2 27.9681 28.0037 8.41165
288 2 41.5153 44.5232 7.97676
289 2 23.8699 23.3029 2.493
290 2 22.7225 3.06306 16.5816
291 2 31.6759 39.0656 43.5944
292 2 41.8792 25.3362 18.5834
293 2 19.4487 24.8232 11.4463
294 2 5.08506 20.1666 16.4662
295 2 51.6734 16.0431 35.4613
296 2 47.0932 8.72573 11.931
297 2 37.3002 24.9669 24.3294
298 2 26.0328 29.681 41.597
299 2 5.90629 31.8565 33.8098
300 2 36.9278 37.2254 22.6657
301 2 2.14647 24.8682 39.1575
302 2 12.8172 27.5836 33.0121
303 2 53.0506 24.1006 34.6599
304 2 38.8798 30.778 8.95797
305 2 37.9784 36.6605 38.1543
306 2 1.1649 47.0541 13.334
307 2 13.3576 24.9195 11.7664
308 2 10.519 23.2288 23.7875
309 2 11.8732 1.04396 14.1903
310 2 24.2628 11.3249 12.7082
311 2 13.6778 48.0795 38.0604
312 2 46.5468 11.1248 11.8557
313 2 21.6485 37.5267 5.40058
314 2 6.65119 33.288 7.77877
315 2 16.0912 13.3045 31.1275
316 2 43.1772 46.0944 2.27055
317 2 35.3935 27.231 51.9243
318 2 32.3524 24.7825 1.70207
319 2 26.2658 29.9801 11.6323
320 2 28.5139 19.3424 11.8875
321 2 50.1858 22.7981 27.9446
322 2 18.376 42.3556 20.5101
323 2 13.0223 14.018 31.0013
324 2 15.8342 44.0721 35.0954
325 2 22.6244 32.6241 6.46246
326 2 45.9742 12.213 9.27888
327 2 26.5364 20.5594 20.5576
328 2 2.62659 24.4709 18.5787
329 2 19.7123 30.9365 23.7064
330 2 41.622 29.1598 39.2101
331 2 3.38673 51.5799 49.7288
332 2 15.4859 17.2185 29.7524
333 2 21.5623 26.5063 7.55769
334 2 3.58929 53.86 33.0956
335 2 4.86734 18.3764 33.5554
336 2 36.8318 32.6987 43.4676
337 2 20.0586 12.0422 21.1069
338 2 52.9378 47.6291 21.688
339 2 22.0833 41.3281 44.8834
340 2 5.69041 48.0195 35.1552
341 2 44.5559 43.9312 2.63128
342 2 48.4177 41.2207 13.6094
343 2 23.1034 16.9587 33.8225
344 2 9.4643 19.0865 27.7396
345 2 2.7396 35.8986 43.3051
346 2 11.8519 32.6428 27.5861
347 2 15.9832 48.519 1.4345
348 2 41.9849 2.36442 0.219531
349 2 50.6727 47.6576 32.0449
350 2 1.66506 46.0663 6.07324
351 2 9.94832 8.85715 50.3979
352 2 51.7743 31.1381 20.5532
353 2 43.1667 32.3504 30.4225
354 2 18.0138 13.1432 50.6981
355 2 23.4422 33.1523 52.28
356 2 21.1575 40.7468 49.0075
357 2 20.6862 3.95539 15.6421
358 2 48.5135 30.3988 25.5134
359 2 16.2953 8.46967 2.4049
360 2 11.3929 35.6978 27.2697
361 2 35.036 34.207 44.0041
362 2 22.3624 41.0121 13.8146
363 2 21.0452 28.3324 51.5542
364 2 43.2556 2.86441 50.1058
365 2 9.57541 19.7297 7.65493
366 2 1.7029 35.5171 11.9095
367 2 52.8346 18.5517 12.6673
368 2 44.003 25.7344 26.7698
369 2 43.4987 15.4317 36.4721
370 2 17.8208 49.7975 37.2261
371 2 40.8163 36.2773 49.7807
372 2 40.0425 32.5348 51.5586
373 2 32.7431 8.66604 7.03543
374 2 9.57568 38.3094 37.014
375 2 51.5818 1.97422 16.1813
376 2 46.9659 21.6342 52.8409
377 2 16.0245 2.98149 39.0951
378 2 14.2178 17.077 27.4652
379 2 48.7458 43.5312 23.1489
380 2 11.3583 3.30668 45.4052
381 2 13.9159 7.67297 21.268
382 2 18.2778 21.0992 11.1372
383 2 28.7159 46.0091 51.0365
384 2 37.8909 40.9592 46.3825
385 2 28.1521 39.1481 5.78185
386 2 14.4197 36.6541 45.3905
387 2 15.9732 49.4878 11.3988
388 2 10.7482 43.3114 24.7311
389 2 6.45748 6.35249 9.01685
390 2 4.00203 3.51918 7.04464
391 2 23.6191 33.1912 13.4651
392 2 0.0799854 12.8421 9.76512
393 2 9.90965 7.56002 52.4905
394 2 45.1789 11.2644 3.97217
395 2 1.83796 4.43422 23.8436
396 2 9.38381 36.722 13.0702
397 2 42.1142 15.1804 40.7103
398 2 42.2249 18.976 28.162
399 2 23.755 30.6176 12.3035
400 2 12.5356 38.758 16.554
401 2 19.8659 23.2565 20.6846
402 2 1.44479 16.4497 40.6842
403 2 2.46462 15.8522 45.513
404 2 39.4255 13.5462 36.4412
405 2 26.8401 45.7907 11.1912
406 2 33.9703 32.721 39.4088
407 2 50.6733 26.9357 6.82124
408 2 47.8366 48.2225 14.2202
409 2 42.9341 28.8797 5.31259
410 2 0.423516 22.5702 16.381
411 2 14.7595 39.5392 48.1695
412 2 15.1762 40.5936 26.8894
413 2 9.80715 40.8007 30.7183
414 2 28.2721 6.68662 37.7189
415 2 48.5789 7.06815 33.8316
416 2 24.0373 1.36542 23.2162
417 2 2.1699 11.7221 21.7056
418 2 40.2427 24.3819 13.6572
419 2 23.4888 31.1057 53.8122
420 2 4.73919 8.41734 8.52579
421 2 29.7178 25.6037 5.16646
422 2 32.2448 36.6975 29.4732
423 2 49.6354 16.2105 8.84556
424 2 2.73521 19.0166 51.4044
425 2 30.0453 29.3935 8.57075
426 2 6.79881 6.74215 36.3449
427 2 1.27171 25.2624 8.14811
428 2 33.7832 9.88565 36.4205
429 2 46.2412 26.8346 49.593
430 2 29.4063 3.96302 4.64105
431 2 33.6998 7.72357 43.0288
432 2 23.58 43.062 45.5776
433 2 30.2058 42.8305 28.5252
434 2 23.8294 7.14854 49.3439
435 2 14.9562 15.5562 41.9549
436 2 3.25334 48.9981 3.93199
437 2 2.51546 18.5113 32.8189
438 2 7.51913 50.3668 19.7333
439 2 4.75657 10.3087 16.2682
440 2 11.9326 40.7179 5.51772
441 2 34.816 35.0682 31.7141
442 2 35.8805 41.5473 23.9226
443 2 2.51328 11.405 17.4396
444 2 10.3965 6.22216 4.63432
445 2 30.3445 48.4395 28.6809
446 2 43.7463 38.701 52.0103
447 2 14.4434 28.8586 15.2173
448 2 33.2914 36.7436 53.9756
449 2 41.3589 18.089 18.8605
450 2 43.9684 23.3201 12.1781
451 2 8.64507 8.53939 48.3321
452 2 26.2019 16.1111 37.4899
453 2 13.7186 13.9951 43.2395
454 2 14.7363 14.6572 15.8959
455 2 3.00478 12.09 23.9159
456 2 48.364 6.77676 48.088
457 2 23.6399 27.4173 8.58121
458 2 30.2801 20.2656 25.8155
459 2 36.3362 12.5532 21.9605
460 2 19.5632 5.53993 50.1691
461 2 14.1644 34.0319 45.4462
462 2 53.0928 46.0667 24.812
463 2 36.6693 27.5598 20.1721
464 2 51.6145 27.4876 22.3272
465 2 34.5158 33.7273 4.19455
466 2 7.59605 13.557 6.55732
467 2 27.1837 30.9999 27.4639
468 2 44.7871 25.2341 39.6141
469 2 35.8327 24.853 38.445
470 2 48.355 5.89989 31.2902
471 2 41.1827 16.1101 24.9887
472 2 42.2037 22.7228 0.447841
473 2 0.371674 8.7396 24.3911
474 2 14.5948 30.045 9.88977
475 2 3.24385 37.522 3.66057
476 2 28.2189 48.5924 50.2484
477 2 33.1583 53.1207 28.4866
478 2 23.3303 42.9035 42.9765
479 2 24.4404 14.3076 9.35282
480 2 52.7865 1.89839 5.82389
481 2 20.8845 43.1097 15.9288
482 2 46.8287 42.7705 24.9322
483 2 27.4439 50.597 1.6064
484 2 24.9106 9.04453 23.4619
485 2 51.3821 49.4112 22.1722
486 2 21.9481 7.09496 33.211
487 2 5.54984 6.63343 24.4617
488 2 8.11544 32.3905 9.64323
489 2 13.8647 53.2322 32.7767
490 2 3.22186 32.0493 33.1411
491 2 14.3178 53.5211 45.7968
492 2 25.7542 43.2368 35.4028
493 2 42.6491 26.797 32.1615
494 2 40.3276 52.7539 52.723
495 2 20.5373 15.6976 3.30848
496 2 10.3385 10.4165 6.05878
497 2 23.2933 50.3213 9.97021
498 2 16.5419 2.07107 26.4756
499 2 34.9056 0.0265444 48.5015
500 2 53.9001 5.67519 20.4117
501 2 51.8568 34.5125 13.7862
502 2 40.7346 18.7319 34.4724
503 2 44.5727 28.0053 31.0318
504 2 1.42645 46.1293 30.7959
505 2 52.8986 48.2813 30.0156
506 2 31.3673 0.665092 15.3093
507 2 38.996 39.4012 11.4639
508 2 17.3274 42.8856 40.451
509 2 35.8911 39.3255 32.8685
510 2 40.5787 29.8257 12.841
511 2 5.54605 31.0633 27.3847
512 2 11.0061 9.58787 40.2578
513 2 37.9622 18.7149 10.2098
514 2 36.2631 47.6364 17.029
515 2 1.95938 6.3571 33.8399
516 2 49.3207 43.9549 3.86161
517 2 48.0904 21.7619 41.2372
518 2 52.5113 38.9542 30.9989
519 2 0.548467 41.9634 41.9387
520 2 38.03 36.4645 17.8618
521 2 40.5208 24.9795 36.7092
522 2 3.58936 4.63866 32.0957
523 2 51.2373 18.1144 32.0544
524 2 47.4418 37.9348 35.5959
525 2 35.6649 52.9583 9.22481
526 2 32.5883 51.5632 0.91422
527 2 4.09806 19.9822 26.4053
528 2 6.85244 44.3759 26.4029
529 2 32.5711 26.8506 23.0765
530 2 45.751 17.1138 44.1713
531 2 53.3061 23.1484 50.1231
532 2 47.7092 45.6709 10.7255
533 2 47.3437 18.7869 43.2072
534 2 8.96149 25.0475 14.0632
535 2 47.6793 33.7364 27.4439
536 2 25.5173 6.5993 24.197
537 2 22.7667 48.1655 9.08289
538 2 36.7177 8.14345 54.0263
539 2 21.9435 43.3716 33.6286
540 2 28.3319 31.5534 48.5435
541 2 12.5014 45.91 5.91885
542 2 22.7818 18.2196 22.2106
543 2 40.681 12.2337 43.3632
544 2 38.8418 15.5574 25.0641
545 2 40.0204 9.07888 30.9827
546 2 0.88935 16.651 33.2886
547 2 26.6368 11.1595 22.242
548 2 1.34604 43.0293 12.0113
549 2 40.7206 52.6642 30.5796
550 2 1.27323 20.5164 26.9418
551 2 43.3306 40.4317 11.7892
552 2 50.0108 50.3038 53.2159
553 2 18.3579 45.5562 50.7389
554 2 30.2811 35.5121 16.1025
555 2 51.4068 24.6932 49.7897
556 2 26.0498 37.4546 7.55672
557 2 1.26591 18.5332 36.9049
558 2 26.4624 52.8739 20.2773
559 2 48.7607 41.1471 34.7722
560 2 46.823 16.0459 33.8353
561 2 17.4588 20.4351 13.5692
562 2 22.2617 38.588 48.3091
563 2 36.3399 24.2273 15.6351
564 2 39.3839 14.2135 44.1224
565 2 50.1266 27.9386 46.9577
566 2 9.56225 22.5479 33.7009
567 2 38.879 31.6794 44.5025
568 2 11.833 40.1662 52.0597
569 2 25.0911 25.4701 28.6405
570 2 41.7781 37.5979 43.1666
571 2 44.683 33.2272 53.216
572 2 32.9688 14.3381 27.765
573 2 42.5124 31.1029 13.1177
574 2 13.0645 47.9216 7.98126
575 2 23.5335 21.5034 4.32894
576 2 39.3186 33.0311 31.3993
577 2 15.1034 36.243 36.586
578 2 46.4529 41.0847 0.428102
579 2 9.17823 48.6953 38.3117
580 2 21.316 30.5083 45.3303
581 2 48.1604 18.4086 0.20982
582 2 30.2009 30.1358 18.16
583 2 36.0414 6.22405 22.7536
584 2 50.7285 22.4678 0.95876
585 2 24.7162 24.6815 0.536958
586 2 5.58045 8.81512 30.8248
587 2 32.3407 48.3452 41.1751
588 2 15.809 0.415718 13.6361
589 2 17.6565 53.4428 20.547
590 2 39.1435 11.9341 45.5884
591 2 49.0776 0.27101 51.9779
592 2 46.1724 23.5754 7.69209
593 2 24.5407 9.50266 21.2166
594 2 39.9437 20.6874 26.3058
595 2 27.6722 14.4309 15.6695
596 2 9.31089 46.8516 28.8776
597 2 41.6376 12.8587 0.192542
598 2 6.61122 38.1295 43.3971
599 2 35.3486 11.0267 40.108
600 2 11.9008 46.9385 13.7514
601 2 6.26609 24.6055 50.9602
602 2 49.392 40.6619 18.6931
603 2 45.4299 12.9966 44.3958
604 2 28.2576 34.9597 32.8668
605 2 3.4212 17.7556 2.2802
606 2 34.6248 49.6407 37.5043
607 2 5.27946 44.7944 22.2089
608 2 27.1353 40.2342 33.291
609 2 48.6552 25.8184 12.5398
610 2 51.1185 25.9477 35.3253
611 2 16.0124 21.7127 11.9198
612 2 7.98202 6.10824 23.8575
613 2 15.2578 5.40234 39.4616
614 2 10.3812 11.8622 28.2065
615 2 1.49638 45.6107 38.8544
616 2 12.9289 30.8389 47.9644
617 2 33.9462 28.3326 41.5811
618 2 34.9941 51.7032 16.0477
619 2 31.6587 33.1033 8.98467
620 2 41.253 17.4848 40.6787
621 2 33.535 29.4068 36.9637
622 2 53.4344 14.8732 14.8474
623 2 15.4813 12.7109 36.0093
624 2 24.3027 54.0623 20.2878
625 2 6.18619 17.5592 6.80824
626 2 12.8634 39.8951 7.79903
627 2 9.73202 43.098 1.14183
628 2 53.1649 42.0952 17.6579
629 2 41.7876 6.06105 11.1141
630 2 2.24664 16.5468 37.9986
631 2 44.485 7.12335 44.2517
632 2 8.385 54.126 29.2919
633 2 13.3205 16.5883 40.2016
634 2 47.3761 31.7684 30.686
635 2 17.2656 14.9413 5.19432
636 2 51.4458 37.2802 17.204
637 2 3.58808 31.018 10.2861
638 2 27.3005 37.2913 36.3936
639 2 34.0795 42.2985 4.59591
640 2 44.6476 38.7731 16.9867
641 2 15.9211 0.545748 19.3077
642 2 21.9982 45.9115 33.7407
643 2 29.2232 41.2607 6.86149
644 2 44.3042 53.9524 10.2607
645 2 40.7689 12.1315 27.1189
646 2 50.2861 37.116 25.5029
647 2 29.8774 31.0999 44.8326
648 2 41.7752 18.2554 30.4762
649 2 46.2367 29.7708 1.29459
650 2 23.8458 52.5977 26.914
651 2 52.923 44.8651 10.7276
652 2 17.6842 50.4453 10.132
653 2 43.0263 51.6157 27.1837
654 2 45.1218 5.2515 54.0177
655 2 53.8966 10.2772 14.881
656 2 48.1565 8.774 49.3782
657 2 36.2545 29.9421 5.48808
658 2 41.8568 12.2847 33.1034
659 2 42.1151 13.0453 21.7055
660 2 15.1428 18.6845 9.48191
661 2 20.6563 4.90404 12.9713
662 2 11.9773 1.01112 16.676
663 2 6.76214 9.89914 32.573
664 2 27.5696 51.0444 42.7092
665 2 27.7219 47.1979 6.1175
666 2 6.50964 36.6569 28.8071
667 2 32.2201 10.1933 1.78534
668 2 41.0128 13.749 3.8172
669 2 11.7742 19.155 1.47281
670 2 49.383 19.6585 43.9073
671 2 25.7693 38.8709 5.58538
672 2 7.12812 24.8054 45.4819
673 2 44.1974 19.6628 6.4565
674 2 11.2419 42.0469 7.61793
675 2 30.5847 37.5468 14.8795
676 2 31.2085 0.0313711 45.3757
677 2 34.0813 30.892 49.5896
678 2 17.1427 53.6522 35.6037
679 2 32.9595 2.92773 10.302
680 2 25.0358 11.6323 19.9351
681 2 53.7918 15.5057 25.4878
682 2 3.05782 42.6476 17.4441
683 2 5.19704 44.7396 44.3089
684 2 17.3699 39.9121 43.806
685 2 31.9145 5.99345 25.6378
686 2 53.664 35.0941 0.139493
687 2 14.7465 16.8185 8.13251
688 2 23.6064 33.5955 46.3953
689 2 26.231 35.1763 27.1143
690 2 36.3124 52.2921 22.7447
691 2 33.0952 47.3228 25.0677
692 2 45.313 31.3754 40.1972
693 2 9.77617 46.3146 12.4769
694 2 29.5534 27.5938 32.8281
695 2 5.34144 44.8022 33.6255
696 2 36.6932 34.9855 21.601
697 2 5.02335 24.8447 22.2968
698 2 1.09306 37.3835 36.7409
699 2 9.19843 9.587 38.6108
700 2 8.47097 53.0539 19.8174
701 2 44.32 17.3894 5.77839
702 2 32.1199 45.9022 26.8617
703 2 47.4689 34.6107 6.43554
704 2 37.2852 15.3827 26.9766
705 2 25.6167 38.2405 21.4567
706 2 51.2102 3.86292 28.8731
707 2 6.46912 40.7438 34.5454
708 2 28.3649 8.20233 18.0048
709 2 7.45769 19.9089 52.3338
710 2 33.3838 3.33848 35.7273
711 2 29.2551 8.06571 45.9749
712 2 38.5397 54.1078 41.2496
713 2 41.134 11.9807 47.325
714 2 18.624 53.2646 6.83684
715 2 12.5787 13.1981 28.4561
716 2 30.9955 1.51807 24.7965
717 2 34.276 8.28603 27.7735
718 2 39.1046 38.2334 50.0416
719 2 13.021 20.458 38.413
720 2 51.9311 4.65198 19.2712
721 2 47.0151 27.6925 30.7654
722 2 24.601 41.1379 44.4555
723 2 12.966 13.0869 15.8047
724 2 47.2007 14.4329 40.4079
725 2 2.81159 13.5539 29.9873
726 2 53.4047 19.4912 4.22563
727 2 8.90813 6.37032 44.5051
728 2 35.7175 8.66187 33.3566
729 2 32.9926 27.1277 10.4326
730 2 12.7268 29.6999 19.1102
731 2 3.93555 23.7727 12.2685
732 2 51.4205 51.3012 11.844
733 2 49.4954 34.9028 33.3306
734 2 28.4788 39.0437 35.1809
735 2 46.8785 34.6563 14.2345
736 2 25.879 9.6227 8.99746
737 2 25.2247 19.4497 33.5814
738 2 22.3544 47.2866 3.86802
739 2 18.0865 3.06413 29.3094
740 2 48.1906 12.5507 10.528
741 2 45.685 26.3345 37.8275
742 2 18.2465 15.4443 3.1035
743 2 16.3212 2.79784 50.4951
744 2 4.87451 51.9054 23.7488
745 2 45.2554 30.0433 16.8252
746 2 5.06357 52.6947 48.1662
747 2 4.38607 13.1902 37.251
748 2 51.4551 44.782 8.82471
749 2 32.3481 8.11988 17.2639
750 2 9.8175 32.1413 23.9096
751 2 8.39063 47.7683 33.9669
752 2 49.3478 7.84789 10.8408
753 2 36.1006 2.09428 12.8021
754 2 4.67814 24.83 14.2346
755 2 48.7047 35.8694 44.1207
756 2 36.0269 33.4546 27.7522
757 2 16.1956 38.3008 45.9826
758 2 48.8013 23.8453 31.9979
759 2 25.0162 6.61696 41.4776
760 2 13.2558 15.4006 13.9125
761 2 40.0612 18.8148 6.52552
762 2 14.492 28.7422 7.90737
763 2 44.363 42.5178 0.879957
764 2 25.5214 44.9708 16.2914
765 2 46.1713 36.664 2.3358
766 2 20.7245 32.7052 32.2452
767 2 15.452 19.7556 38.9072
768 2 2.14316 26.304 41.0681
769 2 40.2267 28.3812 21.1943
770 2 9.85233 30.7964 40.7011
771 2 11.0521 46.9052 45.1394
772 2 32.4097 53.9476 13.3352
773 2 14.4069 25.8865 45.8699
774 2 27.417 25.463 13.893
775 2 52.5368 33.8053 40.1777
776 2 32.8911 10.9804 24.8758
777 2 43.5904 40.9336 6.59421
778 2 0.811604 27.697 4.43547
779 2 15.2219 6.72248 31.1753
780 2 33.2381 41.1953 54.136
781 2 25.0632 26.0777 48.1164
782 2 10.384 41.1087 25.651
783 2 13.0592 29.5375 21.5153
784 2 3.04962 23.9728 23.8379
785 2 6.50889 15.0838 50.9834
786 2 46.8877 26.6952 4.53978
787 2 34.4881 34.5357 0.228995
788 2 5.74697 25.0826 34.7259
789 2 29.0521 15.581 14.1043
790 2 45.8575 18.0405 24.9832
791 2 27.819 48.8085 41.7041
792 2 36.8654 48.701 51.2474
793 2 34.5378 40.3075 25.7683
794 2 39.1278 9.79605 20.0773
795 2 0.709561 22.8434 10.8491
796 2 46.8905 14.8893 44.8101
797 2 17.6603 19.8513 52.6523
798 2 42.1444 41.7691 46.4683
799 2 45.0085 49.541 20.9754
800 2 12.2595 2.52314 28.7708
801 2 53.1021 53.5781 41.6891
802 2 7.54827 33.7836 40.3014
803 2 8.86468 49.9137 6.97709
804 2 4.38812 42.1738 19.4234
805 2 46.138 13.7519 11.3356
806 2 39.0859 5.13377 7.62189
807 2 7.89583 40.4912 51.1208
808 2 38.577 30.5454 11.4505
809 2 27.429 47.9805 46.0007
810 2 45.067 21.5276 36.8805
811 2 53.7692 7.41669 29.7865
812 2 41.145 16.4566 3.30098
813 2 23.9209 16.8268 36.5001
814 2 44.8149 52.6369 37.7924
815 2 10.5573 17.4702 51.369
816 2 35.436 23.255 46.6144
817 2 13.323 52.7978 7.42638
818 2 38.9243 7.6032 45.8157
819 2 33.5186 46.9588 20.2364
820 2 41.3611 23.9864 20.4494
821 2 18.6822 40.3645 1.8103
822 2 18.2385 48.0645 0.524419
823 2 33.2045 36.9655 9.79432
824 2 23.7085 13.8337 53.6704
825 2 53.4194 51.0163 5.56154
826 2 10.9711 18.7912 42.0906
827 2 33.4641 1.99669 24.932
828 2 30.1654 22.6515 24.7266
829 2 47.9695 47.4398 39.5599
830 2 21.0882 28.5974 41.4063
831 2 8.35585 15.0031 22.1573
832 2 38.9028 47.6965 47.4025
833 2 33.006 13.4333 25.4841
834 2 51.6106 32.8534 29.1325
835 2 33.3094 24.2613 41.7417
836 2 27.0724 15.9831 48.6276
837 2 9.38803 7.69009 28.2555
838 2 14.0599 2.06381 12.5881
839 2 45.6763 28.9633 24.653
840 2 20.992 42.8853 3.33905
841 2 45.5826 51.6853 33.2306
842 2 4.74566 30.8742 16.136
843 2 53.1959 25.5236 26.3869
844 2 36.7413 4.78594 51.1307
845 2 13.8735 50.938 19.1033
846 2 24.5563 2.06567 8.44031
847 2 1.13987 34.7425 17.3875
848 2 47.2234 21.0305 16.988
849 2 27.6992 16.7638 16.6553
850 2 7.79518 41.8666 2.3347
851 2 36.4406 52.9466 34.1867
852 2 38.4357 4.20026 39.7274
853 2 34.182 53.6982 26.1615
854 2 17.606 27.1345 39.4325
855 2 16.457 32.7769 34.306
856 2 24.1891 25.3699 16.5369
857 2 12.3817 33.4371 35.6471
858 2 18.251 29.6211 4.25733
859 2 45.5482 9.32091 7.69301
860 2 32.8757 42.2124 49.2489
861 2 51.611 39.4665 18.4641
862 2 2.29067 32.0971 43.8151
863 2 10.9465 6.80504 15.0404
864 2 11.7516 44.2667 38.7818
865 2 5.3829 15.018 5.9915
866 2 49.6694 31.5211 53.4352
867 2 53.4828 52.484 7.76961
868 2 51.1607 31.6963 49.1497
869 2 30.4747 11.6774 9.28944
870 2 32.8714 35.7522 5.5668
871 2 24.3625 28.2605 11.9776
872 2 53.0518 28.984 3.33736
873 2 23.7945 35.6688 45.2584
874 2 50.502 4.27889 42.4059
875 2 16.4423 40.6918 41.4251
876 2 3.73208 50.5034 47.5132
877 2 9.24724 42.6092 35.915
878 2 6.97102 2.56772 50.9587
879 2 18.5003 39.2403 46.0583
880 2 13.8571 48.1138 42.6919
881 2 28.488 8.06755 39.7735
882 2 0.863749 50.2162 38.1277
883 2 9.29172 15.6779 12.7024
884 2 14.8985 50.5075 49.1443
885 2 50.1689 30.2919 40.8425
886 2 43.514 30.5409 24.7152
887 2 23.5093 29.2123 29.2677
888 2 35.1971 18.6658 39.7112
889 2 28.2286 3.77586 10.1713
890 2 47.4003 49.8732 33.817
891 2 42.7021 24.9299 13.8822
892 2 11.3096 23.0966 5.526
893 2 5.13664 7.31474 26.8191
894 2 42.9701 28.1081 45.298
895 2 48.2829 44.442 37.5443
896 2 24.0816 15.0232 3.92978
897 2 10.2008 13.5807 11.8008
898 2 3.12513 8.78744 27.5258
899 2 53.1426 0.259078 52.332
900 2 29.0335 5.84594 33.1705
901 2 30.0977 44.2343 35.0606
902 2 20.005 22.9725 48.5715
903 2 25.5911 31.1338 6.97265
904 2 21.6916 47.8437 44.7515
905 2 38.8786 27.0643 36.7806
906 2 4.20153 16.1117 47.648
907 2 5.81793 6.70249 43.5723
908 2 35.2112 43.1399 38.1652
909 2 5.30424 49.7675 16.2796
910 2 34.4325 45.2913 30.2488
911 2 19.0893 37.0338 15.1598
912 2 32.4321 38.3665 5.81609
913 2 1.19568 26.625 15.2595
914 2 1.25787 51.617 35.9562
915 2 8.59334 33.3757 38.1219
916 2 8.16918 44.3703 40.8575
917 2 0.218505 25.0672 22.1287
918 2 20.1896 2.80607 46.8511
919 2 31.7833 49.9581 45.9324
920 2 6.06864 29.4477 35.4624
921 2 23.0258 35.7028 14.0234
922 2 16.8972 53.7759 0.611387
923 2 14.6748 24.8545 20.4504
924 2 41.6066 19.8075 22.829
925 2 52.638 2.72159 30.3157
926 2 4.95126 52.5759 11.9903
927 2 38.424 42.0088 3.96937
928 2 9.6571 24.0464 42.0686
929 2 10.141 49.2775 40.2625
930 2 1.84901 35.362 35.8374
931 2 41.6456 18.3495 48.2194
932 2 8.93034 27.0566 24.4105
933 2 48.0878 16.1199 6.79962
934 2 0.769832 53.658 13.4832
935 2 13.9622 6.05385 52.916
936 2 7.9162 36.1085 18.2419
937 2 14.8111 36.0649 41.2287
938 2 21.4487 53.1989 47.9357
939 2 8.81143 38.2711 24.5083
940 2 43.5632 22.7449 30.3569
941 2 23.7387 41.9815 34.456
942 2 51.5837 4.94955 38.0397
943 2 23.9416 41.4233 23.8065
944 2 8.64047 43.7891 12.3893
945 2 0.381888 27.4483 53.4299
946 2 53.7675 35.5724 22.097
947 2 49.3498 53.9357 46.456
948 2 31.3745 17.7463 37.3306
949 2 3.83027 52.106 31.5026
950 2 22.4002 33.4604 26.4437
951 2 48.9553 40.4731 7.12378
952 2 34.1885 51.1139 27.0781
953 2 36.4061 50.4577 49.4489
954 2 5.5675 28.6727 0.231527
955 2 44.8229 11.9504 25.8645
956 2 29.9675 37.128 31.9527
957 2 16.0975 19.8446 47.2623
958 2 27.4306 19.5375 29.8133
959 2 24.5795 10.8073 3.71127
960 2 13.9823 47.9226 2.80232
961 2 38.5175 53.7492 29.5125
962 2 15.3407 10.8851 1.63225
963 2 30.0881 31.5137 10.1396
964 2 40.1014 27.5225 32.155
965 2 15.1003 16.1634 17.7062
966 2 49.7844 9.73099 16.1142
967 2 34.675 6.09307 13.3611
968 2 13.6875 46.6632 33.4404
969 2 46.4903 8.49334 45.2059
970 2 9.33066 17.9469 12.1288
971 2 43.4592 27.0983 18.5975
972 2 1.53577 8.89881 0.926739
973 2 48.4596 27.2736 28.8763
974 2 9.45325 1.72185 49.6988
975 2 50.543 5.73445 44.4272
976 2 21.2056 3.32779 40.183
977 2 35.1302 44.8195 52.4335
978 2 32.1341 5.27981 23.2587
979 2 33.7002 9.52926 39.3723
980 2 31.9653 14.8795 23.1885
981 2 52.409 11.7927 8.55499
982 2 17.7991 33.7897 11.0146
983 2 22.0914 15.9729 28.1287
984 2 51.9036 35.1704 9.72525
985 2 48.4126 29.4535 29.879
986 2 42.7239 14.8673 23.3326
987 2 17.8229 21.4351 42.5123
988 2 6.4181 4.4549 38.8516
989 2 23.8387 6.24935 37.1851
990 2 12.2468 44.3632 8.17189
991 2 52.6248 32.8752 42.631
992 2 37.2925 26.1818 43.0733
993 2 25.635 44.5166 37.5624
994 2 19.6464 32.8977 4.1901
995 2 34.5541 47.7593 10.1432
996 2 24.2324 31.0663 24.4342
997 2 23.6761 8.68446 4.11437
998 2 7.60233 41.8358 30.317
999 2 2.6376 0.166943 45.6752
1000 2 36.8579 26.1739 11.0236
1001 2 25.5964 8.65033 49.7618
1002 2 19.6816 50.5441 30.0436
1003 2 17.6759 41.1964 30.7347
1004 2 23.6592 44.4701 39.0604
1005 2 29.9436 6.09372 5.54166
1006 2 52.7897 32.8684 9.29632
1007 2 11.5263 4.01217 1.41845
1008 2 50.5061 18.6906 53.8812