LAMMPS (16 Mar 2018)
# ---------- Initialize Simulation ---------------------
units metal
dimension 3
boundary p p p
atom_style atomic
read_data data.pos
  orthogonal box = (0 0 0) to (54.1712 54.1712 54.1712)
  2 by 2 by 4 MPI processor grid
  reading atoms ...
  10000 atoms
  reading velocities ...
  10000 velocities

# ---------- Define Interatomic Potential ---------------------
pair_style  eam/alloy
pair_coeff  * * ZrCu.lammps.eam Zr Cu
group artn id 8055
1 atoms in group artn
neighbor 2.0 bin
neigh_modify delay 10 check yes

# ---------- Run Minimization ---------------------
reset_timestep 0
fix BOX all box/relax iso 0.0 vmax 0.001
minimize 0 1e-4 10000 10000
WARNING: Using 'neigh_modify every 1 delay 0 check yes' setting during minimization (../min.cpp:168)
Neighbor list info ...
  update every 1 steps, delay 0 steps, check yes
  max neighbors/atom: 2000, page size: 100000
  master list distance cutoff = 8.5
  ghost atom cutoff = 8.5
  binsize = 4.25, bins = 13 13 13
  1 neighbor lists, perpetual/occasional/extra = 1 0 0
  (1) pair eam/alloy, perpetual
      attributes: half, newton on
      pair build: half/bin/atomonly/newton
      stencil: half/bin/3d/newton
      bin: standard
Per MPI rank memory allocation (min/avg/max) = 4.234 | 4.235 | 4.236 Mbytes
Step Temp E_pair E_mol TotEng Press Volume 
       0     302.3179    -45794.18            0   -45403.443    1432.4782    158966.41 
    5006     302.3179    -46194.16            0   -45803.423      2652.51    157340.64 
Loop time of 71.2245 on 16 procs for 5006 steps with 10000 atoms

99.6% CPU use with 16 MPI tasks x no OpenMP threads

Minimization stats:
  Stopping criterion = max force evaluations
  Energy initial, next-to-last, final = 
        -45794.1800994     -46194.1604329     -46194.1604329
  Force two-norm initial, final = 361.922 0.0112559
  Force max component initial, final = 355.088 0.0112544
  Final line search alpha, max atom move = 1 0.0112544
  Iterations, force evaluations = 5006 10000

MPI task timing breakdown:
Section |  min time  |  avg time  |  max time  |%varavg| %total
---------------------------------------------------------------
Pair    | 64.362     | 65.083     | 66.302     |   6.7 | 91.38
Neigh   | 0          | 0          | 0          |   0.0 |  0.00
Comm    | 1.5948     | 2.6858     | 3.4446     |  32.6 |  3.77
Output  | 0          | 0          | 0          |   0.0 |  0.00
Modify  | 0          | 0          | 0          |   0.0 |  0.00
Other   |            | 3.456      |            |       |  4.85

Nlocal:    625 ave 642 max 614 min
Histogram: 1 2 4 3 2 0 3 0 0 1
Nghost:    3110.25 ave 3143 max 3088 min
Histogram: 1 3 3 1 2 3 1 1 0 1
Neighs:    50136.2 ave 51811 max 49160 min
Histogram: 1 4 2 3 1 1 2 1 0 1

Total # of neighbors = 802179
Ave neighs/atom = 80.2179
Neighbor list builds = 0
Dangerous builds = 0
unfix BOX

min_style artn
minimize 0 1e-4 10000 100000
WARNING: Using 'neigh_modify every 1 delay 0 check yes' setting during minimization (../min.cpp:168)
Per MPI rank memory allocation (min/avg/max) = 4.234 | 4.235 | 4.236 Mbytes
Step Temp E_pair E_mol TotEng Press 
    5006     302.3179    -46194.16            0   -45803.423      2652.51 
Loop time of 169.095 on 16 procs for 10000 steps with 10000 atoms

99.5% CPU use with 16 MPI tasks x no OpenMP threads

Minimization stats:
  Stopping criterion = max iterations
  Energy initial, next-to-last, final = 
        -46194.1604329     -46193.8959729     -46194.1604329
  Force two-norm initial, final = 0.000184828 8.02199e-05
  Force max component initial, final = 5.35059e-05 1.9139e-05
  Final line search alpha, max atom move = 1 1.9139e-05
  Iterations, force evaluations = 10000 19998

MPI task timing breakdown:
Section |  min time  |  avg time  |  max time  |%varavg| %total
---------------------------------------------------------------
Pair    | 156.51     | 158.73     | 162.41     |  11.9 | 93.87
Neigh   | 0.014789   | 0.015067   | 0.015572   |   0.2 |  0.01
Comm    | 4.1814     | 7.4598     | 10.044     |  56.2 |  4.41
Output  | 0          | 0          | 0          |   0.0 |  0.00
Modify  | 0          | 0          | 0          |   0.0 |  0.00
Other   |            | 2.894      |            |       |  1.71

Nlocal:    625 ave 645 max 611 min
Histogram: 1 2 1 4 3 3 1 0 0 1
Nghost:    3127.88 ave 3158 max 3105 min
Histogram: 3 0 1 2 4 1 3 1 0 1
Neighs:    50615.3 ave 52457 max 49386 min
Histogram: 2 1 2 4 2 2 2 0 0 1

Total # of neighbors = 809845
Ave neighs/atom = 80.9845
Neighbor list builds = 3
Dangerous builds = 0
Total wall time: 0:04:00
