ITEM: TIMESTEP
0
ITEM: NUMBER OF ATOMS
10000
ITEM: BOX BOUNDS pp pp pp
9.2652968557188853e-02 5.4078547031442831e+01
9.2652968557188853e-02 5.4078547031442831e+01
9.2652968557188853e-02 5.4078547031442831e+01
ITEM: ATOMS id type xs ys zs
1903 2  0.06793432912689243   0.0685445681435148  0.03329529658305878
2641 2  0.04274808115636982  0.03107426844988436  0.03821920081396026
4544 2  0.02206279576313645  0.07198031420002278  0.04618300272994046
5481 2  0.07397208828877551  0.02778440769676732 0.004817272737400968
7812 2  0.01083600504195737  0.03577564320653117  0.07318431827519746
7880 2   0.0475069952002778  0.00865672139217203  0.07803473360870912
9286 1  0.05650630076143429  0.06251960294800298  0.08173982714848321
1105 2   0.1073165480280531  0.05730271822441607  0.01233507986538195
1201 2   0.1067800234343534  0.07503143144257908  0.05572026165579544
1936 2   0.1440559158529703   0.0196875879966053  0.03514462314888438
3640 2   0.1446462305612423  0.04656361696874639  0.07174264611892225
4426 2   0.1107720088195405 0.001610129117208288  0.01118314981520072
5847 1  0.09530557413309569  0.02572460252127473  0.05550815929715359
7963 2   0.1487731998079119   0.0656687036753338  0.02905887366654342
1007 2   0.2133140978965224  0.07552017891718847  0.02384348743708652
4039 1   0.2489451541378922  0.02710981668228284  0.06149186467590725
6059 1   0.1919499688813062  0.03764328735183649  0.05046226481873303
9165 1   0.2286306843679022  0.02520011592395381 0.004999853184798053
1603 2   0.2988990396149795  0.01613914794644435  0.05359825202208084
1675 2   0.2557415898897034  0.06171235062428858  0.02489117657247552
5024 1    0.288560084822076  0.07061133521266917  0.06023256533127329
8809 2   0.2789531624199911  0.02614683985346645  0.01353407292631244
9345 1   0.3233899496875556  0.05030808732249575  0.02098112784737917
1086 2   0.4128396422416969  0.03460006613873013  0.07193501709473533
1191 2   0.4061135711552671  0.07731870399792168  0.01017745183181961
1228 2   0.3573868393404516  0.01210872200716383 0.003260940115625202
2955 2   0.3444452175184152 0.007516953472084758  0.04720163929879043
4562 1   0.3767848974370991  0.04909411526601642  0.04163773581849733
7954 2   0.3344094287923915  0.04267111234411751  0.07415915967596211
1849 2   0.4885922058598625  0.03013162739261949  0.04032776270340732
2236 2   0.4559221132391433  0.04709552757114781  0.07093130004265029
2700 2   0.4240686197301388  0.07489736574376209  0.05377822358099183
5573 1   0.4421632998799614  0.03658203839586641  0.02269706238781318
4399 2   0.4429652416613157 0.0008922956280382698  0.06407031761873656
2758 2   0.5246397889023372  0.01782890901506203  0.06374833375409282
3461 1   0.5735887222527136  0.01810813215835949  0.04350868679506891
3937 1    0.535060836418243  0.06175853216839931  0.03293216026595278
4235 2   0.5818556375652125   0.0625958318590203  0.06447631302930215
4784 2   0.5003196012247186  0.05901112488289423  0.07301104520392478
7128 1   0.5279510202561051 0.006390232216233302  0.01048475569108318
1724 2   0.5915358826361077  0.06717505888819907  0.02125867663941095
2234 2   0.6244845579434037  0.04478322444732123   0.0434082003904159
7365 2    0.666062767090393  0.06270969228094067  0.04271112665090224
7614 2   0.6381722313866517  0.07819713949291648  0.01181447282491052
8438 1   0.6670103857566458  0.01681444866493731   0.0688299713198371
2929 2   0.7006122520232435  0.03530908294248302  0.03529121317920429
3573 2   0.6694436506681358 0.009727494485240882  0.01364548415313898
5376 1   0.7021375585162695  0.06481314771726406  0.07958346677706343
8380 1   0.7315296779702817   0.0737112248654458  0.02101953744032452
9605 1   0.7469236104767648  0.02250203232831618  0.04615122455758069
9704 2   0.7483537343308642  0.07647930359043846  0.07076529849948733
348 2   0.7728360857692106  0.04473451332293538 0.003509063505443307
3790 2   0.8312388974892552  0.05726325271361239   0.0583794965280121
8068 1   0.8019580630950518   0.0209684627467387  0.04087440293820958
8387 2   0.8172267405117312  0.06064689249622848  0.01399497271031157
9395 2   0.7815874899338598  0.06990252886490184   0.0405559983452603
1167 2    0.847726138725943  0.02343644316583434  0.02130599972564458
6365 1   0.8942409510307505  0.03064309620470752 0.0007165653602523464
6608 2   0.8670788427994031  0.07275828102187411  0.07866735866658907
7489 1   0.8677329418948141  0.07772967265222185  0.02615390999607247
9902 1   0.8804913171699026  0.02660854081837377  0.05913228923257607
9964 1   0.9146817015467832  0.07779027015531691  0.06358486901703343
9753 2   0.9174029092240179  0.07438957090141934  0.01207004852205546
216 2   0.9700282325053845  0.01163928369298632  0.06712546990203867
1102 2    0.999950308534319  0.03823829085440346  0.02124371791276701
1214 2   0.9580493641966591  0.05280633021486903 0.006454412491504723
2230 2   0.9302140176201114  0.03231861526980372  0.03615112216883861
6041 1   0.9690458925540915  0.06052048128526249  0.05622225647954276
972 2  0.03034124917468844   0.1634802711410113  0.01747233395074539
5519 1  0.03988376329459617   0.1142751646719695  0.02053628764285754
7400 1  0.06900235518695019   0.1646197526875103  0.05104736631094923
8336 2  0.08045938681180982   0.1118814750264299  0.05057073264335065
8404 2  0.04038061694366139   0.1116464822106961  0.07319051331950281
8676 2  0.01955347157196038   0.1520297908100451  0.05986782382718292
6926 2  0.08368119939545066  0.09447586686149301 0.0009365829337138044
1516 2   0.1638883767091651   0.1343109935999345  0.05510202746003431
3604 1   0.1139673250048795   0.1451202156235954  0.07150694870752494
3677 1   0.1263743544053019   0.1125658705886759   0.0264826183600164
9491 2  0.08542690429542958   0.1400262018501717 0.009661258973607848
3314 2   0.1735492812242941      0.1531515635519  0.01383206074807689
4633 1   0.2317390779233973  0.08376102219441792  0.06859563455149187
7264 2   0.1800182283410665  0.09123584838116816   0.0508480952447482
8175 2   0.2041388443873196   0.1612285043815658  0.08040910261795715
8807 1   0.1772023045639132   0.1028201155953586  0.00153391907183356
8822 1   0.2142653298743394   0.1318531812910171  0.04036947757279176
4035 2   0.2506882063499321   0.1030976210475313   0.0164549373739162
359 2   0.2993342427188707   0.1567471787331488  0.04698145224620424
4078 2   0.3112425609237545   0.1191142105035556  0.07366246544489842
4414 1   0.2643010344069658   0.1516742654952076 0.008869307828887908
5873 1   0.3053043913356355   0.1085508501862791  0.02101073997202873
5907 2   0.2672320520011968   0.1218449126098948  0.05444747661534772
103 2   0.3560543482976684  0.09178986926634017  0.01880973073217345
2383 2   0.3398583852325133  0.08709904655404234   0.0596176826641288
3670 2   0.3852364494233854   0.1018488358989234  0.05133684256228654
3792 1   0.3504103138700629   0.1415944106021698  0.04069919162474581
9785 2   0.3963773206315012   0.1461498329116491  0.06011957188566125
997 2   0.4380162309465742   0.1588607903645219  0.07721833740614946
2891 2   0.4996508566597886    0.164712736432497  0.01370102235078942
5865 1   0.4788406231999678   0.1378450101664138  0.05161322400853342
7395 1   0.4290409619585966   0.1209527403127914   0.0309564219323381
7439 2   0.4657242698864578  0.09065953741788324  0.07797673166284183
8101 1    0.475875674858357  0.08335289010390146  0.02798223802491986
2629 2   0.5691054135120921   0.1586421567646444  0.06461938340861553
2946 2    0.529834212263264   0.1418004485759881  0.04180697562667422
3978 1   0.5669871888544045   0.1088935632852933  0.05034117118021766
5170 2   0.5147345580392364   0.1020187367683981  0.05888165191180069
9647 1   0.5704298831510107    0.146326880044508 0.006619781131519967
87 2   0.6464877299074743   0.1410289796707765  0.07176394016896992
3119 2   0.6490317272433745   0.1277171183542785  0.02672553734041765
4358 2   0.6078847939701468   0.1118436507311134   0.0109389182974752
5801 2   0.6091793686746237   0.1431193502083808  0.04470489562067893
9308 1   0.6222073054492496  0.09450300711187098  0.05835140275401567
1038 2   0.6719613553155444   0.1029257448447387  0.06298690477245383
3288 2   0.7181220482586954   0.1096575367038987  0.05746498925191828
3464 1   0.7294241905640615   0.1319217945079959  0.01027832530871418
6828 2   0.6894585432979849   0.1434592480326127  0.04595547695044363
6990 2   0.6854186461289682   0.1010346610556971  0.01913445338033234
8720 1   0.7386087597740382   0.1587011340784838  0.06130490767271807
62 2   0.7818243276497836   0.1464541102767284   0.0248323446017241
3500 2   0.7865958849023319   0.1418972619433263  0.07259963861159635
4794 2   0.7631909821013387   0.1116548667909087  0.04708584971472181
6531 2   0.8203890137987764   0.1396600808523867 0.0007485878510359455
6597 1   0.8292796085507339    0.166099025227843  0.04507423287372363
7598 1   0.8192539433681643   0.1063650917635695  0.04499630213257967
1370 2   0.8593464245694027   0.1309384146683518  0.02470950183871337
2049 2   0.9024944542453963   0.1197495075088757  0.02535977153280821
7449 1   0.8761355354424465    0.121558187583287  0.07264966724520235
5981 2   0.9943851943529924  0.08355830102480237  0.01280794436494686
1077 2   0.9380730466371139   0.1552076950842969  0.02668290089692549
1792 2   0.9979269110990884   0.1093534089335657  0.05462521829529137
2000 2   0.9593372599891642   0.1073217701810763  0.08038239467296772
3767 2   0.9923905537468747   0.1333634330668219  0.01529692812065742
4612 2   0.9260845949006827   0.1355371500839642  0.06487778621800855
6425 2   0.9722378464152245   0.1468543733044884  0.05940845326169887
7298 1   0.9514979744622829    0.107638589641091  0.02870493057722825
238 2  0.07493950223133863    0.207762209980206  0.07957834925965815
2193 2  0.06653804113435456   0.2475334701825131  0.05627234252163431
6398 1  0.05671514096926697   0.2350866188599835 0.001084946465994371
8252 2  0.07171664172674647   0.1854902780565087 0.003761843520922415
9771 1  0.03212721756564611   0.2080210794219171  0.04712036679555628
1964 2   0.1174632418628691    0.194624574192224  0.06576551023578893
3052 2  0.08991265621502401   0.2132085716351212  0.03567172293021522
4655 1   0.1233774587819568   0.1728133002730112  0.01955184542206187
7026 1   0.1136242122116155   0.2424848058857839  0.07854269158791422
7702 1   0.1653442176376851    0.184273186612976  0.05987375676103879
8281 1   0.1447673872676468   0.2279777768497335  0.03105139248738168
2028 2   0.2001522267472649   0.2296913411486284  0.03590781169735412
2405 2   0.1811920104599011   0.1971333932081501  0.01360445518621391
2899 2   0.2164605860927313   0.1835618596961822  0.03760592048484346
4164 2   0.2368897146018962   0.2144653221850233  0.01054147116748145
4317 1    0.174181150138131   0.2477638610686614  0.08083584481230698
5141 1   0.2488398285220802   0.2248823928883331   0.0603626582651843
6394 2   0.2062767023420433   0.2087853230112811  0.07563508746305167
3574 2   0.2529116572234468   0.1678632816867263  0.05752008200060787
962 2   0.2811555314856146   0.1989852057667093  0.03074459449810862
1486 2   0.3118557411418834    0.175748157224171  0.00684017898541662
4673 2   0.2880282444449689   0.1933917561611636  0.07617082819115638
5482 2   0.3190020966990438   0.2215124932631273  0.01309740519181312
8307 1   0.3022646385106557   0.2433412010027495  0.05938947967712753
4927 1   0.2780020686618708   0.2436315218378192 0.0009337551205512445
3170 2   0.3974069257133521   0.1677834308845184  0.01691490002146722
1514 2   0.3989540540186122   0.2176395719519252  0.02377626826388059
1674 2   0.4107425238341011   0.1882063183767469  0.05528906078631521
2263 2   0.3823375263339933   0.2207398141010919  0.06655237147174899
6019 1   0.3586435936077605    0.246879400378942  0.03139304438239119
7493 1    0.337660445646719   0.1964537760015629    0.050807683045348
8130 2   0.3491076636478959   0.2498091217756727    0.081683945430088
2410 2   0.3712417449939912   0.1764653684831336  0.08199972214263079
959 2   0.4553484966828713   0.2001323044483153  0.06532300872283511
2033 2   0.4439480296040349   0.2270815890580666  0.02208572068581751
2766 2   0.4787499874398368   0.2366273339760035  0.05783385872189051
4197 1   0.4487273053553599   0.1757688718523138  0.02292469101713296
8312 1   0.4914294997795684   0.2146270209257731  0.01202060032782745
9003 2   0.4258379063910323   0.2335841759896926  0.06274245151323718
8222 2   0.4987760243044178   0.1881079251046934  0.05913863606552538
4075 1   0.5427857736599909   0.1879185563931762  0.03081927474563956
5260 1    0.573918278090083   0.2242643810070854  0.06164774391857916
9745 2   0.5245054288545051   0.2289140927677353  0.04932364935579255
7480 2   0.5409816064986905   0.1911832827454565  0.08304306910880196
667 2   0.5966448320240423   0.1838023248048336  0.03246856276230108
2426 2   0.6536278536532399   0.2343031630670664  0.01837540976675369
4667 1   0.6608213982065864   0.2279563864768251  0.07332533461529578
8865 1   0.6554130016544202   0.1810773700726729  0.03762635424231033
9319 1   0.6127366023038628   0.1816263152023945  0.08207514419628149
9679 1   0.5967835407787264   0.2472162666410063  0.01024675322764297
9705 2   0.6206113508880239   0.2176968604646627   0.0458409151024838
2012 2   0.7126835304973361   0.2422017198701718  0.07308776505027384
3074 2   0.7077999450663205   0.1793509577180084  0.02162774708417555
3540 1   0.7433688378460792   0.2143279643696253   0.0435135794077585
4867 2   0.7028114782057178   0.1953903645095359  0.06782874965148114
6260 2   0.6948376778835267   0.2239143848030838  0.03170521567421856
597 2   0.7693005440220928   0.2330570466174509  0.00629929405397276
1688 2   0.7528656830475836   0.1791507503517876 0.009115694461033811
3762 2   0.8162138821461925   0.2416631372267666 0.006074987765602581
3865 1   0.7994044625741611   0.2295965196402031  0.05403977020067985
7773 1   0.8032436645813397   0.1933189793604148 0.002259934137186135
8209 2   0.7815842157333248   0.1831477315783601  0.05142035322579017
394 2   0.8396349666206187   0.2061521012003484  0.07433645850912614
1966 2   0.9056279217204074   0.2218617715819259    0.034799131807191
8064 1   0.8895461125249066   0.1714429707668322  0.04263035279882977
8846 1   0.8535695114655337   0.2182291674480121  0.02990637943086233
3655 2   0.8435459090293522    0.249918528858033  0.07969541508005873
93 2     0.99374378246706   0.1835145950538632   0.0801234674922606
1079 2   0.9313940764397878   0.1937878468765874 0.008269273021726217
2951 2   0.9281493014581853   0.2424116265050775  0.07008194185755476
3385 1   0.9990106020215797   0.2412344301434317  0.01148229786583294
5019 2   0.9510470025638366   0.2298878634765801  0.02778490196787653
5192 1   0.9409654985088547   0.1914149509863206   0.0663373132260803
6446 1   0.9830099759080082   0.1826560531606289  0.02498266597307866
9302 2   0.9823536653043948   0.2217955848613732  0.05742908341689439
605 2    0.062693951041129   0.3297787814147214  0.04121478217310296
1918 2  0.05500735735934259   0.2915237631098184  0.08075475341649492
2582 2 0.0008553835182551736   0.2906080613943983  0.01792249021263282
5756 1  0.05282646268387967   0.2851505607040154  0.02579302373455876
7640 1  0.01474817149000957   0.3172764836039047  0.05975150985681021
8118 2    0.021729981975891   0.2583339359859773   0.0552803838908091
1174 2  0.09578868791366851    0.287686940239573  0.06037366919960865
1420 2   0.1384052567750774   0.2776556919481136  0.04717114708328068
2437 2    0.100097965488079   0.2576644010459546  0.02561619830350506
2907 2    0.156395893165145   0.3097527020706617  0.01853262686808854
5802 2   0.1322408805848185   0.3236466536699995  0.05447561011286174
6246 1   0.1040289537648871   0.3110481573461316  0.01323600327731375
1326 2   0.1787525105738006    0.268865185762429  0.02771145085562796
1687 2   0.1813037356584144   0.2977521536731302  0.06455319060981607
2980 2   0.2177933783233306   0.2654715965715538  0.05859824501150569
4769 2   0.2001945763971462   0.3103908645607393   0.0245730588889648
7554 1   0.2268143551589866   0.2671449528599514 0.007455665998115757
7999 1    0.235284321151316   0.3145788440694243   0.0582223615758673
1299 2   0.2615986935403308   0.2712256757578491  0.04366782994028022
1733 2   0.2752686563119189   0.2940648826968693 0.005097095613443598
2123 2   0.3161391201874553    0.273199350795516  0.01761644436532372
3899 1   0.2937019002917166   0.3068012502837674  0.05585357180139466
6432 1   0.3171770016927236   0.3266685030672493 0.006875298701170102
495 2    0.377363546952645   0.2871448678933955  0.05951325207446757
742 2   0.3359165891027612   0.2862576556928103  0.05524083744473591
3784 1   0.4083112107761142   0.3320963513571098  0.02142143498496119
4161 1   0.3637903601758664   0.2963209123997307 0.004673187451754576
4959 1   0.4106193342156017   0.3162922258020505  0.07872506610465137
7961 1   0.4132743231080348   0.2735930963379097  0.03175477815709588
896 2   0.4425837081222638   0.2743569055138745  0.07354567857383497
1187 2   0.4642049894598166   0.2684324504577481  0.03110907246772166
1972 2   0.4498949629271465    0.301523693982503 0.002582123291217379
2019 2   0.4910777602697088   0.3058633033471428  0.02355181462606884
4228 1   0.4918365831112199   0.2847241807071469  0.07667895987106327
4237 2   0.4520828162424045   0.3113141284909544  0.04739495243370487
1258 2   0.5101253574680171    0.265669040812904  0.03159228299923247
3744 2   0.5815299023098113   0.2979300322513361   0.0168390067702331
5157 2    0.554762880020005   0.2636313356478625  0.03131662357006236
8574 1   0.5390863449858596   0.3099997149808761  0.05027935534169293
8725 2   0.5408834086313959   0.2644669113371566  0.07353339208498183
2169 2   0.6321428154799722   0.3059809243030895  0.04498391605039081
2983 2   0.6433156561340272   0.2789210743164553  0.08151631343305528
3953 2   0.6302872200068808   0.2603306883824864  0.04465288034906172
6663 2   0.6446639097170588   0.2830838138307967 0.008084209140079363
9470 1   0.5909530907380564   0.2807597744500124  0.06453542266706769
2587 2   0.7148178894249907   0.3144561716596495  0.03952965158351607
2622 2   0.7196345790336456   0.2881927897233774  0.07661471350873041
4298 1   0.7325262070584019   0.2667739750424055  0.02761937730623953
7529 1    0.675144262494817   0.3232717179129859  0.07428390125900039
8502 1   0.6710600016703995   0.3275258683706735   0.0138026080399204
9625 1   0.6801496414763089   0.2745116188977389  0.04300374779861878
668 2   0.7574041992008165   0.2558288789409556  0.07185890110712628
812 2    0.760280257269804   0.3013478598351467  0.06298261560540339
1699 2   0.8079423600226416   0.3162685568635983  0.05254125127978292
9616 1   0.7849088100580932   0.2796208160158875  0.02269373165774727
78 2   0.8481809145367847   0.3275665428775134  0.03247603894288656
1503 2   0.8822830377695927   0.2572192928202036  0.05623325827606224
4913 1   0.9140778827107335   0.2898811911946603  0.08062624606972198
5337 1   0.8383031481128933   0.2765516661843093   0.0346625501659345
6487 1   0.8569141349303888   0.3020721743337771  0.08179905877037776
7924 1   0.8810112030509626   0.2587221138850858  0.00104284161517513
7984 2   0.8858624825794862   0.2997031810447962  0.03494714987509222
2520 2   0.9570077706420709   0.2737227122158241 0.004851273618290659
3606 2   0.9213431182545696   0.2664380511554481  0.03186716139203077
3738 1   0.9710538492520707   0.2713798934849667  0.05613217367419692
5359 2   0.9638627234917024   0.3191228229996935  0.07364078196804281
9694 1   0.9351345545111008   0.3157620100544806  0.03526379978589654
9758 2   0.9812834328235448   0.3308063490173218  0.02548291738601183
1669 2 0.008331473051625911   0.3700727430148382  0.03339986678642479
3976 2  0.03968387305005135   0.4081618402188354  0.03532387919955484
4370 1  0.04338727284132965   0.3667759325126559   0.0719496917596775
5252 2  0.05903269906701715   0.3707104905907249   0.0233840527600401
6031 1 0.005810650041198496   0.4076604638399107  0.07369506302846503
9041 1  0.02761565313687511   0.3338269285093539 0.0005712521079319057
3389 2   0.1526990099591142   0.4025036044734622  0.05564647848908323
4492 1  0.08957288244809095   0.3993321090483122  0.06347462379557657
5528 2   0.1390710184216294   0.3508935970411181  0.01541823900431307
7055 2    0.129724990094898   0.3671613509111961  0.06885516394817119
7886 2  0.09930844124561906   0.3562841240955694  0.03738625912745522
8559 1   0.1221777387848964   0.3982575005890912  0.01485150296398672
669 2    0.218441819793412   0.3520222413944764   0.0266220473234658
3622 1   0.2086230652191377    0.401029629576507   0.0567086602407722
4915 2    0.174812819758765   0.3845701042343925  0.02174747434685452
7313 2   0.2179822492062904   0.3913569917992678 0.004768377534769481
8904 1    0.177263110349164   0.3486719236880421  0.05728519565164615
225 2   0.2712729398287555   0.3444154065044294  0.08030707481727657
1403 2   0.2918442417238536   0.3858275446208044  0.08293285269718587
6219 2   0.3029232958174096   0.4034413646997491  0.03916368855621825
6485 1   0.2568597328325548   0.3761642152372051   0.0449367876543953
8374 2   0.2674909958219035   0.3347502015400808  0.02024347458818095
8571 2   0.2923345223692233    0.372363373549935 0.004024732209497156
9207 2   0.3051371337601003   0.3566717428909776  0.04723789352426908
1277 2   0.3972153628864295   0.3660509438935907  0.06472313787832848
3214 2   0.3793069257916364   0.3835788864158267   0.0263825127760723
6571 1   0.3569094425094141   0.3345893168407466  0.05040075319244267
9213 1   0.3432557236707914   0.3866641402636561  0.06805699877522783
9793 2   0.3349320688319524   0.3773648884458194  0.01773438198039335
575 2   0.4334984441079304   0.3966191747168463  0.08085531342430596
1575 2   0.4680742721591175   0.3912697184487455  0.05083818852849874
7406 2   0.4422769447658914   0.3542886989821841  0.06119378022349999
7696 2    0.424700713776733   0.3870775140885052  0.03294466201739559
8730 1   0.4945296331456656   0.3437373821671162  0.05985096476755489
9118 1   0.4615191206278961   0.3524002269986218  0.01170795481840249
1917 2   0.5605339049402973   0.3376980476772664 0.008566793933892191
2256 2   0.5026597465215216   0.3843057083246182  0.02417902884324076
5753 2   0.5417223676106605   0.4077283241079234  0.03167386631380441
6162 2   0.5140939027185323   0.3413211146374451 0.009458786399562076
8006 2    0.540248827392384   0.3622076957835553  0.04246985225492392
8474 1   0.5159510721450634   0.3975301012444033  0.07557796139044518
8529 1    0.571432187769511   0.3916038776106814  0.07438840470128522
9796 2   0.5785340318842825   0.3765776471560368  0.02221421330965933
7205 2   0.6189687525172032    0.390538190098246  0.04863574788276886
7903 2   0.6382467650150065   0.3494350393458933  0.05139152359272233
8539 1   0.6139772229185603   0.3355671822074843 0.005587964289420634
8773 1   0.5882570006567507   0.3401109365695053  0.05688101275890517
9338 2   0.6154428193854653   0.3891947539014337 0.002469979202804546
9718 2   0.6553661269917282   0.3740439037686866  0.01807321838287919
8770 2   0.6455115711075798   0.4164792054166482  0.07947932538789231
1175 2   0.7438871084608739   0.3883603333818249  0.01019843912576925
1618 2   0.7308761542213761    0.333783880616094   0.0785955858746105
2676 2   0.6674486517906515   0.3763890659980292  0.07342735398925013
4723 2   0.6700032552766612   0.4088842701479503  0.04074665447786618
4851 1   0.7096851026752538   0.3675684760693757  0.04587148739822527
4059 2   0.7124569510069039   0.4160745631440294  0.03102689271305841
7609 2   0.7179642956978163   0.3409052487099593 0.002618461557382862
1393 2   0.7664256129308203   0.3799621217663598  0.04809376714045144
2050 2   0.8073815550035723   0.3560384544646124   0.0341678667254223
8015 1   0.7610325946442588   0.3362877016488987  0.02833509475532932
8075 1   0.8112911863490746   0.4048237239461487  0.04468915231156848
581 2   0.8919845221964274   0.3368718610153283 0.004727290556604256
1653 2   0.8620279246315429   0.4014331186079753   0.0599341143297808
5218 1     0.83693918799551   0.3569754444023387  0.07427374471356427
8187 2   0.9060859045781913   0.3812473786436002 0.009683297024103749
8439 1   0.8536548045683195   0.3763310406737149  0.01890943739967648
9559 2   0.9103692329590002       0.398601505801  0.05664097813208076
9930 1   0.8925909543633236   0.3506409137238242  0.05301155597981987
726 2   0.9872678760418312   0.3593529298318355  0.07418590541055567
7976 1    0.951140108573248    0.370757218844859  0.03452785925824891
8485 2   0.9570090518834329   0.4081904151640694  0.06419640533667165
8583 1   0.9880536543111542   0.4154517590655364  0.01566309916544763
1587 2   0.0407908709767343   0.4846225660604854  0.01193515512748932
1919 2  0.02358590800700119   0.4504513467206172  0.04242553571104314
2080 2  0.05318163452472205   0.4348661088300105  0.07517468887120976
4087 1  0.07562524634246777   0.4453098356978327  0.02973207382236748
4331 1  0.05535146371784896    0.487642692987738  0.06352003762809189
224 2   0.1619782890218427   0.4283944108341131  0.01777589913217681
2220 2   0.1258214730173552   0.4389152032712429  0.04630763211860749
3838 1   0.1124838313524742   0.4876618084776375  0.04172763610709388
4474 2   0.1645345309392063   0.4997366495309552  0.05793082968454041
4872 2  0.09645387175822608   0.4546784036984266  0.07839041788645465
6026 1   0.1651776855911192   0.4772904755278281  0.01236950965387279
1852 2   0.1162755260831055   0.4504438963147849 0.001437287361282516
101 2   0.2060432345962182   0.4870671615660181  0.04377657867025114
3155 2   0.2228779994397123    0.453000738572167  0.06862135683286703
4739 1   0.2118540521829751   0.4405324574210951  0.01640230569585229
7226 2   0.2382755048823496   0.4950096208797272  0.07596957577423093
9218 1   0.1741125769631819   0.4478241823056644  0.06453837373409861
8039 1   0.2649761361269954   0.4178028602466746 0.006008477043873121
2191 2   0.2802144994055682   0.4736544949569018  0.07456237158711256
5462 2   0.3004731119606835   0.4499289300529712  0.03765387770283168
7015 1   0.2551872394126651   0.4722613393722624  0.03011517954531352
7861 1   0.3198615988654447   0.4356354224765542  0.08184843560383195
8287 1   0.2641830943880441   0.4268704792687206  0.06537641840027325
9661 1    0.330540061199542   0.4843008634766603  0.01735068516808743
9388 1   0.3225395418486009   0.4974725761681774  0.07308470711646879
2190 2   0.3612377571135522   0.4623856400585168  0.06334750361756185
3229 2    0.378397736405374   0.4709116812624446  0.01688608765794147
6076 1   0.3890339762740924   0.4186451886698084  0.06512632435232697
8272 1   0.3470769170976398    0.428967121338716  0.02633654768737164
9514 2   0.4094429449919545    0.463551232872904  0.05045942228005437
9610 1   0.4044365014575053   0.4300312803615979 0.006008836654129509
289 2   0.4407253211939485   0.4290661216112733  0.04747658439453949
585 2   0.4553677551652532   0.4558099183150731  0.01420361982212029
5638 1   0.4962661670741083   0.4366750936615902  0.03746376724006087
6953 1   0.4896018864994668   0.4985623461881585  0.01736310633332199
8788 1   0.4265653846428072   0.4939823857540214  0.01264670208956431
9355 1   0.4651472466448865   0.4752714047427183  0.06350862969155593
1582 2   0.5205076822656839   0.4814606198094932  0.05706297048980809
6933 2   0.5703510673941208   0.4834959862764529  0.05500996403046238
7411 1   0.5447806008681247   0.4586722625306655  0.01652809631474932
9026 2   0.5484134789388878   0.4392124290260666  0.06357672000147079
318 2   0.5959706768823628   0.4596508193049011  0.02610253574092836
3217 2   0.6323159024942847   0.4336506918982231  0.03242897111083621
3860 1    0.599662080047508   0.4424945695406717  0.07774786496248788
5298 2   0.5862339500768712   0.4188452555603345  0.03327778775158002
5317 1    0.626331584714182   0.4893214810791567  0.05611307696926554
5580 1   0.6367383327370157   0.4779201299625803 0.0001639569454501427
2838 2   0.6642282669318149   0.4523411104998883  0.05866695338208414
222 2   0.6717689820373589   0.4936669018189089  0.08021571250928999
2312 2   0.6734373956481544   0.4904344458776941  0.03456735028804409
4189 1   0.7018755152945862   0.4171897630196116  0.08297025893746623
5548 1   0.7135816238885382   0.4681770302607719  0.05578768686911562
5885 2   0.7136360803080305   0.4883029073893915 0.008078044179974552
5919 1   0.6815335567377742   0.4475381205362143 0.007167163964008415
472 2   0.7794356662328872     0.41846709910609 0.006747755900747132
2331 2   0.8167797420325926   0.4836876250058139  0.01214934178475191
3627 2   0.7911245738367719   0.4537405297061252  0.03403519037616707
4529 1   0.7540019909788443   0.4275165077704987  0.05379854365263093
5289 2    0.759241970208986    0.473876928381997   0.0749297355435766
5659 1   0.7621930589053159   0.4959848025817705  0.02491967007659336
9032 1   0.8047114346302165   0.4954956702949443  0.06565930845476793
5285 2   0.7957004709992626   0.4456230514825287  0.08200764626662282
165 2     0.86218287266738   0.4741483997960467 0.005051318848150607
2846 2   0.8878129966855556   0.4781380562153948  0.04390928827548409
8452 1   0.8403635743688327   0.4529638900870586  0.05112741431907907
9109 1   0.8836591126125776   0.4276359242102201  0.02252907903021359
786 2   0.8616504311484166   0.4924593157499068  0.07919788296790493
584 2   0.9353554017903744   0.4196179751886268  0.01724600837231521
1694 2   0.9808617241241601   0.4484431382759045  0.05718220510833408
5048 2   0.9604163128362825   0.4598084806488894  0.01993002365788371
8719 1   0.9966090074613568   0.4943121136289582  0.03672369705698798
9262 1   0.9284707209002996   0.4492735563781498  0.05733440997068139
27 2  0.06987011977859157   0.5177986343529888  0.02610509595320949
778 2  0.01306465922753444    0.510861302218351  0.08040972565236583
2162 2  0.06231603505431195   0.5770864318400497  0.07466041926133117