ITEM: TIMESTEP
1
ITEM: NUMBER OF ATOMS
10000
ITEM: BOX BOUNDS pp pp pp
9.2652968557188853e-02 5.4078547031442831e+01
9.2652968557188853e-02 5.4078547031442831e+01
9.2652968557188853e-02 5.4078547031442831e+01
ITEM: ATOMS id type xs ys zs
1903 2   0.0679187274484163  0.06855332102478666  0.03329375377049806
2641 2  0.04272846790370707  0.03108622278566721   0.0382179657078705
4544 2  0.02204639650688779  0.07198905298015471  0.04618178000217674
5481 2   0.0739500656761132   0.0277957935845952 0.004815000430659522
7812 2  0.01081681777850897  0.03578912485072709  0.07318380806441559
7880 2  0.04748617311676834 0.008672897825922236  0.07803390949720336
9286 1  0.05648818988963856  0.06253506055364431  0.08173876665076489
1105 2   0.1073005016938347  0.05730602473575419  0.01233276066644808
1201 2   0.1067657010062366  0.07504083546989843   0.0557173812526058
1936 2   0.1440343247897292  0.01971035420175158  0.03513329649022879
3640 2   0.1446261918478867  0.04657761405676275  0.07174089236313361
4426 2   0.1107503103535672 0.001629223433349814  0.01117728099540654
5847 1  0.09528483725202927  0.02573844873451088  0.05550827656688986
7963 2   0.1487548657281197  0.06567979459487794  0.02905471016828668
1007 2    0.213297329519781  0.07552561844407091  0.02384074191905754
4039 1   0.2489222944917823  0.02712419808102122   0.0614918109346573
6059 1    0.191930824431097  0.03765800681590432   0.0504645252918897
9165 1   0.2286135283725537  0.02520739214549469 0.004995832272797899
1603 2   0.2988785620719727  0.01615591519567959  0.05360040838448748
1675 2   0.2557280023400482  0.06171734729575983  0.02489155735353417
5024 1   0.2885439105777943  0.07061499278951361  0.06023645991071624
8809 2   0.2789349356534517  0.02615201523742601  0.01353053114909634
9345 1   0.3233706624314284  0.05030969855435174  0.02097425572941474
1086 2   0.4128330108913221  0.03457957898485758  0.07193380293208972
1191 2   0.4061114499296705  0.07728310513040913  0.01016681666516329
1228 2   0.3573736319350038  0.01211526913076331 0.003257432865753848
2955 2   0.3444250942634163 0.007530639604384469   0.0471962916391121
4562 1   0.3767696134081852  0.04909361330345668  0.04164108949068672
7954 2   0.3343922229538009  0.04267830035744598  0.07415971123065604
1849 2   0.4885885528790209  0.03008951110317444  0.04032961154049435
2236 2   0.4559217001120784  0.04705840346614155  0.07092533537874682
2700 2   0.4240705538241433  0.07486394182492891  0.05377097827996098
5573 1   0.4421738809866109  0.03656137179370412  0.02267661705282943
4399 2   0.4429676723274411 0.0008808217337623683  0.06406309203651066
2758 2    0.524628830501182  0.01779947511262323  0.06376426962979626
3461 1   0.5735745833215038   0.0180677464653723  0.04352552471405522
3937 1   0.5350554629914424  0.06172347939979989  0.03292774520237313
4235 2   0.5818477470764192  0.06255589146181097   0.0644806038762049
4784 2   0.5003161131314389  0.05897442421383985  0.07301233610395745
7128 1   0.5279517204793189 0.006345310265210322  0.01050029266667423
1724 2   0.5915293143846337  0.06712207575473257     0.02126187570713
2234 2   0.6244774949731323  0.04472261074762629  0.04340350187653746
7365 2   0.6660490465222322  0.06266517343082853  0.04271484873688575
7614 2   0.6381637589265384  0.07814231856901226  0.01181212810683941
8438 1   0.6669887636948585  0.01676225271938345  0.06883434395304257
2929 2   0.7005905382932665  0.03525964539696828  0.03529372418977061
3573 2   0.6694110726523611 0.009683408411220146  0.01366418088582957
5376 1   0.7021215601282549  0.06477046446165151   0.0795800186479013
8380 1   0.7315187243450711  0.07366684561373714  0.02103293261842444
9605 1   0.7468935684708125   0.0224553624963257  0.04616406350284825
9704 2   0.7483373970790168   0.0764510345825555  0.07077488697438564
348 2   0.7728159568075289  0.04470673966426979 0.003521853024686505
3790 2   0.8312038807596762  0.05725398877148673  0.05838345698661155
8068 1   0.8019333122684226  0.02095048822628639   0.0408788692708322
8387 2   0.8172105783691338  0.06063078312527437  0.01399740462876765
9395 2   0.7815828108634187  0.06988086759002454   0.0405718348789337
1167 2   0.8477037075244186  0.02342968157534259  0.02131092713205311
6365 1   0.8942217846918684  0.03063890956524698 0.0007201811201448487
6608 2   0.8670514687555786  0.07275509638104721  0.07865909836218997
7489 1   0.8677161820747404   0.0777215155512106  0.02615492116124697
9902 1    0.880466914606487  0.02660676015904528  0.05913338046772939
9964 1   0.9146624313121603  0.07779191219891184  0.06358671538118983
9753 2   0.9173870071576807  0.07438727036020341  0.01207135274731913
216 2   0.9700046228005827  0.01165006523437078  0.06712359201071529
1102 2   0.9999313779712488  0.03824501484901335  0.02124541993178004
1214 2   0.9580326920144263  0.05280361668154492 0.006453599234395497
2230 2   0.9301941305219303   0.0323260695916391  0.03615480672435503
6041 1   0.9690276540577196  0.06052844609291999  0.05622270600495468
972 2  0.03033238860481644   0.1634825547384552  0.01746712526188793
5519 1  0.03987015207591147   0.1142797728984865  0.02053324874653472
7400 1  0.06898968212377489   0.1646190043997838   0.0510431988711994
8336 2  0.08044622541668013    0.111887649361475  0.05056783744166492
8404 2  0.04036883047377865   0.1116607804433803  0.07318888111091927
8676 2  0.01953973509830803   0.1520340895234734  0.05985873696543084
6926 2  0.08366829709418869  0.09448078520376212 0.0009343779675889038
1516 2   0.1638691415562888   0.1343196321131544  0.05510790409286161
3604 1   0.1139502745242225   0.1451291311449394  0.07151109970936399
3677 1   0.1263612679142014   0.1125747784488792  0.02648336226323671
9491 2  0.08541473147528363   0.1400294070016355 0.009654650402538245
3314 2   0.1735250774648489   0.1531423783497404   0.0138287379210509
4633 1   0.2317191592072479  0.08376623107624553   0.0685942459894603
7264 2   0.1799973264303101  0.09124424242677244  0.05084692183561332
8175 2   0.2041235316537488   0.1612300502884703  0.08040934865509416
8807 1   0.1771814024371081   0.1028156841233467 0.001527599340238511
8822 1    0.214239560665394   0.1318485696489514  0.04036706890100734
4035 2   0.2506631731824589    0.103096506693595  0.01644960719059722
359 2   0.2993096005918883   0.1567185529556558  0.04698232759015002
4078 2   0.3112205386669903   0.1190992023426415  0.07366076041515429
4414 1   0.2642630884667783   0.1516666087300686 0.008869604984956972
5873 1   0.3052763781500414   0.1085444990866617  0.02100166966585712
5907 2    0.267207586405214   0.1218354178813418  0.05444779261684209
103 2   0.3560280860023868  0.09178390397527701  0.01880376876439014
2383 2   0.3398416198149484  0.08708907137844726  0.05961657481602924
3670 2   0.3852250105788567   0.1018108587292346  0.05133431155904784
3792 1   0.3503972849240906   0.1415569457542219  0.04069023366105756
9785 2   0.3963614481055654   0.1460956280816489  0.06012321264099883
997 2   0.4380036954539345   0.1587954343651863  0.07722577598742655
2891 2    0.499656621982564    0.164659655201855  0.01369283213307992
5865 1   0.4788362420244451   0.1378048669031812   0.0516157947916254
7395 1   0.4290312927271205   0.1209083768064287  0.03095015000158626
7439 2   0.4657159981779717  0.09062132485960463  0.07797895406165081
8101 1     0.47588105641696  0.08331844709372746  0.02798266679702661
2629 2   0.5691104155641414   0.1585968713640018  0.06462486739591852
2946 2   0.5298305898973216   0.1417486768091026  0.04180525904594755
3978 1   0.5669865271501873   0.1088500034895565  0.05034405583441046
5170 2   0.5147325125468581   0.1019771646780587  0.05888893999418753
9647 1   0.5704330411158856   0.1462667032707894  0.00661243099010303
87 2   0.6464922426487125   0.1409798714610029  0.07176845896033751
3119 2   0.6490304877491643   0.1276668923012977  0.02672838215443097
4358 2   0.6078844000808398    0.111791109752851  0.01093963816239664
5801 2    0.609180367128804   0.1430612455753969   0.0447108107837108
9308 1   0.6222064857266406  0.09444738093269968  0.05835479130911232
1038 2   0.6719582941736145   0.1028835914855918  0.06299173866549321
3288 2   0.7181216865185429   0.1096184453058103  0.05747831465036515
3464 1   0.7294250492225027   0.1318788819684453  0.01029431279582082
6828 2   0.6894607062247405   0.1434118817580604  0.04596450806963948
6990 2   0.6854160826000462   0.1009866061167972  0.01914092332133694
8720 1   0.7386125479173365   0.1586595453674035  0.06132103417508322
62 2   0.7818273566029607   0.1464241485834956   0.0248457148124878
3500 2   0.7865982621151232   0.1418729767892116  0.07261907521552238
4794 2   0.7631912189294676   0.1116266480275749  0.04710312157518549
6531 2    0.820386289815922   0.1396401623598829 0.0007538138161747153
6597 1   0.8292811376982606   0.1660907415370751   0.0450776939911288
7598 1   0.8192508971418914   0.1063575428834287  0.04500128923645368
1370 2   0.8593415428526597   0.1309309626755942  0.02471435290581169
2049 2   0.9024851536703322   0.1197438355292403   0.0253584723899997
7449 1   0.8761298243317249    0.121555485359935   0.0726519959507612
5981 2   0.9943697522327564  0.08356281573903195  0.01280697926892582
1077 2   0.9380706718493902   0.1552075114934162  0.02667952630392855
1792 2   0.9979130224622654   0.1093594986475338   0.0546235604543074
2000 2   0.9593216679885056   0.1073282378266267  0.08038283285039244
3767 2   0.9923757392608398   0.1333660812940921   0.0152950456714396
4612 2   0.9260754537676065   0.1355404661459847  0.06487548895844072
6425 2   0.9722271489761669   0.1468579213325069  0.05941022350753444
7298 1   0.9514838870137626   0.1076386759139271  0.02870419043291629
238 2  0.07492304691710397    0.207757777479097  0.07957740651509387
2193 2  0.06652969884616255   0.2475309400263329  0.05627299016051762
6398 1  0.05671102152875415   0.2350817518527388    0.001087657149714
8252 2  0.07170759424025441   0.1854884395898071 0.003757528288510923
9771 1  0.03211714250515892   0.2080209801200072  0.04712375191475442
1964 2   0.1174486896792439   0.1946267037233096  0.06576894232740418
3052 2  0.08990165263994872   0.2132056796949576  0.03567159674287439
4655 1   0.1233647413496654   0.1728160163453134  0.01955037590413351
7026 1   0.1136060876166028   0.2424820660874806  0.07855076291210127
7702 1   0.1653273258532968   0.1842782281288728   0.0598786905766089
8281 1   0.1447475217020308   0.2279757896841055  0.03105213840548047
2028 2   0.2001263077280498   0.2296717124989771  0.03590392158013801
2405 2   0.1811601905988912   0.1971210869278777  0.01359872233163901
2899 2   0.2164333797800538   0.1835510706122835  0.03760014505050945
4164 2   0.2368625086412171   0.2144442422211916  0.01052745588560349
4317 1   0.1741612801899837   0.2477524331793037  0.08083921487770915
5141 1   0.2488188031545495   0.2248427368470838   0.0603485057791811
6394 2   0.2062588142367552   0.2087804532188302  0.07563940584575249
3574 2   0.2528825498038056   0.1678469443019882  0.05752441212993648
962 2   0.2811355670229346   0.1989486104449799  0.03073254905539882
1486 2   0.3118280331608606   0.1756901870340352 0.006828902261921808
4673 2   0.2880119451816945   0.1933644530747313  0.07616447516501552
5482 2   0.3189724515214689   0.2214511053021887  0.01306295611931126
8307 1   0.3022427472060104   0.2432850776556257  0.05936882875669721
4927 1   0.2779758443981565   0.2435919943211201 0.0009132312088230885
3170 2   0.3973942719595517   0.1677325955775102  0.01690255108146847
1514 2   0.3989353394104188   0.2175533605082575  0.02376298278117291
1674 2   0.4107427401168965   0.1881339942232161  0.05527761177584657
2263 2   0.3823120709597392   0.2206559604828333  0.06653933457000374
6019 1   0.3586213652366182   0.2467887397655815  0.03137113407178111
7493 1   0.3376306208340455   0.1963974802356271  0.05078416622206273
8130 2    0.349092481447435   0.2497408929664927   0.0816758189367829
2410 2   0.3712196264216385   0.1764106806896048  0.08198810347648557
959 2   0.4553502526505636   0.2000287954331423  0.06530619045164322
2033 2   0.4439391773675579   0.2269787642152897  0.02209959818969835
2766 2   0.4787562196852125   0.2365272631532695  0.05785775901927542
4197 1   0.4487252965025778   0.1756939907698858  0.02290052250436039
8312 1   0.4914299271054551   0.2145693215670877  0.01201744487847987
9003 2   0.4258161592200263   0.2334585396984841  0.06274801187757846
8222 2   0.4987885239930929   0.1880480958871938  0.05913747398659475
4075 1   0.5428018448301761   0.1878538340066761  0.03080664878474315
5260 1   0.5739452130958093   0.2241814333915642  0.06165608513700068
9745 2   0.5245122461749556   0.2288102710844497  0.04935717559843219
7480 2   0.5409767989706425    0.191138276785129  0.08304111790774116
667 2   0.5966564334351124   0.1837397375490575  0.03246724777652259
2426 2   0.6536403746803114   0.2342453458565899   0.0183693453208746
4667 1   0.6608292480984876   0.2279018837120531  0.07333108714043288
8865 1   0.6554246289430851   0.1810224893078533  0.03762297721601355
9319 1   0.6127517096571071   0.1815703974949897  0.08208061153560645
9679 1   0.5967963581960901   0.2471307879635953  0.01023425517321033
9705 2   0.6206301663470897   0.2176273238055859  0.04583675044703144
2012 2   0.7126936344526259   0.2421544974492651  0.07309713062196949
3074 2   0.7078052986299368   0.1793009417475447  0.02163634096144735
3540 1   0.7433749255141825    0.214284340437333  0.04352412223566374
4867 2   0.7028182050956967   0.1953480538271615  0.06783838791244771
6260 2   0.6948460657535626   0.2238584936994087  0.03170692185429135
597 2   0.7693148160109334   0.2330132136185047 0.006313959028604692
1688 2   0.7528725108819673   0.1791089106953676 0.009125819441182143
3762 2   0.8162302251874974   0.2416394488239115 0.006075517958162509
3865 1   0.7994071402412813   0.2295776390510133  0.05403606799714052
7773 1   0.8032511169254061   0.1932929229101538 0.002259751354132388
8209 2   0.7815881865832504   0.1831191714922395  0.05143091847288999
394 2   0.8396297368575806   0.2061467500744989  0.07434071739914558
1966 2   0.9056311537047703   0.2218544752559253  0.03479220866424788
8064 1   0.8895477696290109   0.1714355555566553  0.04262745013767143
8846 1   0.8535771796101783   0.2182162920511134  0.02991226464763099
3655 2   0.8435585005939764   0.2499137503328374  0.07968355169592301
93 2   0.9937369881770745    0.183515014641012  0.08012696532899975
1079 2   0.9313914416147799   0.1937838657320744 0.008259304882958779
2951 2   0.9281506514966024   0.2424084383750004  0.07007116654143022
3385 1   0.9990107795495137   0.2412321615044118  0.01147885606038361
5019 2   0.9510484820078502   0.2298819880912308  0.02777612814073099
5192 1   0.9409612765858769   0.1914143121062889  0.06633671705678554
6446 1   0.9830042027897882   0.1826574600919858  0.02498152656110193
9302 2   0.9823469734033252   0.2217941116780109  0.05742996929780345
605 2  0.06270352837516294   0.3297703966390895  0.04123015465105542
1918 2  0.05500490863216397   0.2915265563251776   0.0807542940887967
2582 2 0.000865064404620835   0.2906009035743972  0.01791746301667468
5756 1  0.05282337238608648    0.285146571174465  0.02579152060930556
7640 1  0.01475329675797405   0.3172808820975173  0.05975023122995502
8118 2  0.02172627053493312   0.2583363878917868  0.05528430255420051
1174 2  0.09578160018326806   0.2876864249049328  0.06037433175249484
1420 2   0.1383937875947011    0.277648601031088  0.04717060458265462
2437 2   0.1000886928982925   0.2576615069426329  0.02561600458693184
2907 2   0.1563828706742702   0.3097405083736385  0.01852065997241365
5802 2   0.1322336260712782   0.3236351900317644  0.05446878722187993
6246 1   0.1040183539766651   0.3110413021307489  0.01323332749884875
1326 2    0.178735443026196   0.2688503600550985  0.02770417221864719
1687 2   0.1812889786336583   0.2977321104603967  0.06454192782867818
2980 2   0.2177765184955674   0.2654349938671038  0.05860267259594768
4769 2   0.2001766624511995     0.31036988643433  0.02455159548998574
7554 1   0.2267872352664187   0.2671195310745064 0.007444617859011102
7999 1   0.2352478162697272   0.3145394700205656  0.05821319734201877
1299 2   0.2615706512802729   0.2711798612577882   0.0436461068258527
1733 2   0.2752400000373946   0.2940170008042011 0.005069641577820998
2123 2    0.316123527759413   0.2731310435637739  0.01758411980555062
3899 1   0.2936865399198264   0.3067248092050743   0.0558299244679472
6432 1    0.317131459067109   0.3265758616997851 0.006822775071342648
495 2   0.3773477096947299   0.2870457613032138  0.05946552933457964
742 2   0.3358918600407929   0.2861511980658289  0.05522680506258201
3784 1   0.4083027279310931   0.3318736198837358  0.02137738900338369
4161 1   0.3637689244252819   0.2961951148080262 0.004623120497808626
4959 1   0.4106711876015702   0.3160664158254646  0.07873218812157994
7961 1   0.4132774976262033   0.2734462729746439  0.03174597959123972
896 2   0.4426251192194228   0.2741893043028035    0.073526736403384
1187 2   0.4642239560435962   0.2683041144853431  0.03109564279019287
1972 2   0.4499148831320597   0.3013762550371089 0.002566599004706729
2019 2    0.491096481716885    0.305740672080677  0.02358281126804773
4228 1   0.4918565035884878   0.2846211972955852  0.07669781774000856
4237 2    0.452109800110071   0.3111717509060644  0.04739518406967744
1258 2   0.5101416132694262   0.2655538099089271  0.03160356312145183
3744 2   0.5815768762373175   0.2977849279228159  0.01684775101972322
5157 2   0.5547816359506237   0.2635134706813934  0.03134200315727163
8574 1    0.539115541564007   0.3098814068456858  0.05032102184293409
8725 2    0.540904453702347   0.2643520410945167  0.07355185924054612
2169 2   0.6321829567165427   0.3058885270888808  0.04501588613836694
2983 2   0.6433297305267639   0.2788458813637327  0.08152734551526636
3953 2   0.6302927273178663   0.2602565955820222  0.04465682004248647
6663 2   0.6446497931706672   0.2830138962144033 0.008086722407297879
9470 1   0.5909694846079859   0.2806798578359027   0.0645594949209094
2587 2   0.7148724872035156   0.3143906248833849  0.03952088337849279
2622 2   0.7196535987169052   0.2881415995417235  0.07661678136523682
4298 1   0.7325429142955826   0.2667147031321039  0.02762636091673013
7529 1   0.6751857801773918   0.3232094205958927  0.07427770813449756
8502 1   0.6711143143593029   0.3274116893993594  0.01380105540117447
9625 1   0.6801646945766117    0.274443096952698  0.04300193787887613
668 2   0.7574186878191734   0.2557924448300697  0.07187579836555764
812 2   0.7602917068169072   0.3013090522239134  0.06295524491401942
1699 2   0.8079599805559486   0.3162537380716904  0.05251537075570338
9616 1   0.7849201996813545   0.2795964336341224  0.02266424273516221
78 2   0.8482029899832536   0.3275586954998423  0.03245985350557665
1503 2   0.8822933822347089   0.2572177065010859  0.05622466808259911
4913 1   0.9140895344462254   0.2898798553165212  0.08061804592422687
5337 1   0.8383121637175884   0.2765423667185738  0.03465031311865317
6487 1   0.8569298068430325   0.3020661612222081  0.08178425003686092
7924 1    0.881011782726671   0.2587069776144691 0.001036792927026899
7984 2   0.8858738287222971   0.2996940173911198  0.03493416808991189
2520 2   0.9570152123367522   0.2737212418124315  0.00484202573397296
3606 2   0.9213487987157983   0.2664304867463309  0.03185491245724072
3738 1   0.9710561206131406   0.2713772070501875  0.05612608541878528
5359 2   0.9638733127189048   0.3191238990579031  0.07362229709615703
9694 1   0.9351454606245967   0.3157507653842225  0.03524785786155854
9758 2   0.9812947034969264   0.3307944508379024  0.02547071356981387
1669 2 0.008350697666101773   0.3700610367440532  0.03340244395090628
3976 2   0.0397062232735275   0.4081494148852201  0.03532131517147562
4370 1  0.04340614601740141   0.3667783507362189  0.07195653589641234
5252 2  0.05905038620167052   0.3706961827075805  0.02338266295766945
6031 1 0.005830717389504395   0.4076538915889941  0.07369380314796568
9041 1  0.02763127612319686   0.3338190149172081 0.0005711866078435321
3389 2   0.1526967305014065   0.4024802251558962  0.05564590486706973
4492 1  0.08959522131723903   0.3993273160361325  0.06346685367865457
5528 2   0.1390665512102555   0.3508798897863494  0.01539388797916834
7055 2   0.1297272391613523   0.3671421109344824  0.06887402629576665
7886 2  0.09932330647258387   0.3562774364853302  0.03738836160561193
8559 1   0.1221959103220856   0.3982589370712919  0.01483785136647014
669 2   0.2184170056825112   0.3519927368079656  0.02660111098967912
3622 1   0.2085930594925297   0.4010101605671738  0.05670787042491423
4915 2   0.1747991340780058   0.3845221829252578  0.02173753119009483
7313 2   0.2179755068593355   0.3913498704759647 0.004779255616300041
8904 1   0.1772576736122509   0.3486484955338634  0.05728876815113318
225 2   0.2712288346101309   0.3443292599558412  0.08028411225459191
1403 2   0.2917048862379419   0.3857469014084594  0.08291540245519533
6219 2   0.3028691574248917   0.4034095697247515  0.03906805384573853
6485 1   0.2568181528989713   0.3761350272741967  0.04491933145284081
8374 2   0.2674433675602306   0.3346978279520658  0.02023322239532984
8571 2   0.2922918358801756   0.3722787127020911  0.00397036382590875
9207 2   0.3050300451806877    0.356567528951259   0.0471686480887273
1277 2   0.3972219036927354   0.3655829815917097   0.0645884252016955
3214 2   0.3792752753170682   0.3832731275622068  0.02627969839785284
6571 1   0.3568440813870991   0.3344520244814523  0.05033640904352379
9213 1    0.343022951950378   0.3864657619599703  0.06795614011044483
9793 2   0.3348893079217827   0.3772581649409015  0.01764040112112969
575 2   0.4335494208090254   0.3966068284309546  0.08102552634954469
1575 2   0.4681428191419589   0.3910191956493455  0.05089511686872722
7406 2    0.442315795913776   0.3541324409034917  0.06124258971476314
7696 2   0.4246962490260579   0.3866439507767381  0.03284460155648962
8730 1    0.494574223203994   0.3436554730038155  0.05990291022195709
9118 1    0.461549056500762   0.3521994274730017    0.011700324482252
1917 2   0.5606075612824036   0.3375242002274095 0.008598911538064609
2256 2    0.502736997541958   0.3840237258359939  0.02414990221965534
5753 2   0.5418850981243387   0.4074791305829107  0.03170070489846565
6162 2   0.5141612785713034   0.3411319745335563 0.009482869048333646
8006 2   0.5403173095326127   0.3620569820526841  0.04251279974666923
8474 1   0.5159401067454096   0.3975265296013292  0.07567933288862921
8529 1   0.5714374033507177   0.3915139653417692  0.07440730002557809
9796 2    0.578628548631744   0.3764037951230512  0.02219355637890412
7205 2   0.6190482057548091   0.3904330826189261  0.04866492124330674
7903 2   0.6382834143305799   0.3493373718873092  0.05137022054557577
8539 1   0.6140568644892848   0.3353849806891246 0.005574496717245684
8773 1    0.588309038152939    0.340009340874927  0.05688599278363663
9338 2   0.6155995467190107   0.3889872234699597 0.002504977263466505
9718 2   0.6555328322808482   0.3739433495440317  0.01811482938483789
8770 2   0.6456131311526527    0.416418496005895  0.07944479485127205
1175 2   0.7439741817081406   0.3883218101270711   0.0101509536379664
1618 2   0.7309087206170175   0.3337334316160656  0.07858684547083868
2676 2   0.6674827823165862   0.3763164056027501   0.0733712427456772
4723 2   0.6701377082306748   0.4088287481740353  0.04071650141231482
4851 1   0.7097458950361735   0.3675056395454144  0.04584188012613492
4059 2   0.7125963095914044   0.4160006885485862  0.03100371397815339
7609 2    0.718004357888452   0.3408178917379216 0.002596043977935656
1393 2   0.7664705568862432   0.3799621608396559  0.04807493878348199
2050 2   0.8074217086347701    0.356030752621995  0.03414985412620129
8015 1   0.7610760204033613   0.3362712339539721  0.02832122529889321
8075 1   0.8113513813175607   0.4048125408241217  0.04469813996818718
581 2    0.892001593260476   0.3368611778981193 0.004715570609230838
1653 2   0.8620713646622548   0.4014235441276786  0.05992993571157038
5218 1   0.8369670479402767   0.3569627334895742  0.07426641754840692
8187 2   0.9061234262757137   0.3812345225071214 0.009675583001564139
8439 1   0.8536991991832964   0.3763222722609498  0.01890158484854061
9559 2   0.9104031292707602   0.3985906856530347  0.05664059074546891
9930 1   0.8926197148676094   0.3506302103591565  0.05300529647707497
726 2   0.9872842029327572   0.3593544509439986  0.07419416113256053
7976 1   0.9511677453613284   0.3707458730467231  0.03453159104018429
8485 2    0.957032925757167   0.4081832649949833  0.06419625996959941
8583 1   0.9880824419463791    0.415442789273622  0.01566112153157023
1587 2  0.04082768622566475   0.4846025129597939  0.01192105957050002
1919 2  0.02360849009926509   0.4504393830190734   0.0424178110393444
2080 2  0.05319578953737549   0.4348499473169506  0.07517163836545838
4087 1   0.0756442055788628   0.4453017371821885  0.02972769376591778
4331 1  0.05536256812959855   0.4876332564350584  0.06351535808409327
224 2   0.1620306400690699   0.4283594357807909   0.0177914901761809
2220 2   0.1258369987187526   0.4389022777156291  0.04630370743837976
3838 1   0.1124910762032185   0.4876445117668087  0.04174729318484502
4474 2   0.1645358752142625   0.4997127082724818  0.05793304301724456
4872 2  0.09645643631343054   0.4546563711463534  0.07839577170610536
6026 1   0.1652095379244895    0.477250513968393  0.01237677875466907
1852 2   0.1162968632708544   0.4504480711674972 0.001438587801061291
101 2   0.2060696803599232   0.4870549826666225  0.04378169210795365
3155 2   0.2228509884920709   0.4529855583371671  0.06863301231130502
4739 1   0.2119027622151352   0.4405363932554632  0.01642160446340541
7226 2   0.2382923562578412   0.4949867293892652  0.07597655519331722
9218 1   0.1741034631801094    0.447809994207668  0.06455447517029338
8039 1   0.2649561724094967   0.4177510677216578 0.005982177193728132
2191 2   0.2803588967465518   0.4736969790306724  0.07463488788435589
5462 2   0.3006191331212383   0.4499769680133596  0.03769096155798501
7015 1   0.2552734529098962   0.4722377647207638  0.03016242544286983
7861 1   0.3196232433643774   0.4353734099186442  0.08192213460724831
8287 1   0.2641461944848295   0.4268773853069379  0.06530574464997091
9661 1   0.3303580931275064    0.484492049369361   0.0170448626551947
9388 1   0.3227662113216886   0.4976102988299117  0.07314342003856791
2190 2   0.3609641357832029   0.4615410898872422  0.06349626175937899
3229 2   0.3779289945384416   0.4705168322353795  0.01549311667086546
6076 1   0.3889232847451501   0.4177353992578502   0.0653312607911662
8272 1   0.3471085156399726   0.4288404807624853  0.02624999363815382
9514 2   0.4082747559243065   0.4616555708945161  0.04896347756962097
9610 1   0.4043556528677195   0.4294683191652346  0.00553073057767881
289 2    0.440665917222232   0.4283916513385542  0.04723328802551872
585 2   0.4554770799598096   0.4554563013677458  0.01417076345376763
5638 1   0.4965962584040849   0.4360184485051164  0.03718759553600559
6953 1   0.4905514374077603   0.4971945318190384  0.01675256872582801
8788 1    0.426285328879987   0.4934524333083011  0.01142848322257009
9355 1   0.4659779081552629   0.4732065496201533  0.06371365372911961
1582 2   0.5206070252032872   0.4815564255186572  0.05720308698632789
6933 2   0.5705192687480419    0.483321777361651  0.05502011588534308
7411 1   0.5447396117138961     0.45853793407657  0.01652350507283838
9026 2   0.5484349270187243   0.4391410702317983  0.06360415200625474
318 2   0.5960029004637571   0.4594155019322259  0.02604809666897607
3217 2   0.6324031398968467   0.4334923135322348  0.03242998131515911
3860 1   0.5997303694411396   0.4423320749516288  0.07772707554789411
5298 2   0.5863328852409413   0.4186405987212113  0.03326630787957107
5317 1   0.6263980694219913   0.4890951897917033  0.05608796883541856
5580 1   0.6369101036041401   0.4774996946574575 6.64721951587718e-05
2838 2   0.6643406704804182    0.452270016111531  0.05860462388900887
222 2   0.6717785937239471   0.4936691583500172  0.08017566809024462
2312 2   0.6734499697394146   0.4904311793339104  0.03453001438731421
4189 1   0.7019597278586363   0.4171321073249042  0.08292963597899682
5548 1   0.7136304397500717   0.4681924082615865  0.05578570377983944
5885 2   0.7137805586707331   0.4882514513249905 0.008049413621577505
5919 1   0.6817306586243461   0.4474540680553055 0.007151809245504736
472 2   0.7795368495481321   0.4184240648409828 0.006755589758583358
2331 2     0.81685043788061   0.4836863993214169  0.01213835935867381
3627 2   0.7911992504247091   0.4537327390577001  0.03401476738777285
4529 1   0.7540782121110871   0.4275377145098744  0.05378671361826162
5289 2   0.7592869313398565   0.4738962135675716  0.07492870697238277
5659 1   0.7622712115745055   0.4959875802343394  0.02491164499100179
9032 1   0.8047663098874154   0.4954833843902098  0.06565338935268958
5285 2    0.795743478989054   0.4456168301278681  0.08200351028711736
165 2   0.8622432870221073    0.474142122774646  0.00503933773313728
2846 2   0.8878604118765214   0.4781363958572752  0.04390371965330987
8452 1   0.8404167568437346    0.452956492013136  0.05112134804426765
9109 1   0.8837085538681719   0.4276265128425813  0.02252418240859465
786 2   0.8616937954676007   0.4924564117511461  0.07919602984406215
584 2   0.9353953185255829   0.4196114942118542   0.0172430778356928
1694 2   0.9808892774019921   0.4484403479264292  0.05718133622660276
5048 2    0.960456098740178   0.4598063928995434  0.01992556729627319
8719 1   0.9966552731919081   0.4943131194405767  0.03672188805112891
9262 1   0.9285057615366866   0.4492689186854735  0.05733194759717915
27 2  0.06986947638466669   0.5178046593677914  0.02609452057163054
778 2  0.01308548444200333   0.5108571374618339  0.08042295682757723
2162 2  0.06234284156011426   0.5770857755860375  0.07465654771591033